+ 0.00017 0 1 rtProtoDV 6 ------- 0 0.1 1.2 -1 0
- 0.00017 0 1 rtProtoDV 6 ------- 0 0.1 1.2 -1 0
+ 0.00017 0 2 rtProtoDV 6 ------- 0 0.1 2.1 -1 1
- 0.00017 0 2 rtProtoDV 6 ------- 0 0.1 2.1 -1 1
+ 0.00017 0 3 rtProtoDV 6 ------- 0 0.1 3.1 -1 2
- 0.00017 0 3 rtProtoDV 6 ------- 0 0.1 3.1 -1 2
+ 0.00017 0 4 rtProtoDV 6 ------- 0 0.1 4.1 -1 3
- 0.00017 0 4 rtProtoDV 6 ------- 0 0.1 4.1 -1 3
+ 0.00017 0 5 rtProtoDV 6 ------- 0 0.1 5.2 -1 4
- 0.00017 0 5 rtProtoDV 6 ------- 0 0.1 5.2 -1 4
+ 0.007102 2 0 rtProtoDV 6 ------- 0 2.1 0.1 -1 5
- 0.007102 2 0 rtProtoDV 6 ------- 0 2.1 0.1 -1 5
r 0.010175 0 1 rtProtoDV 6 ------- 0 0.1 1.2 -1 0
+ 0.010175 1 0 rtProtoDV 6 ------- 0 1.2 0.1 -1 6
- 0.010175 1 0 rtProtoDV 6 ------- 0 1.2 0.1 -1 6
r 0.010175 0 2 rtProtoDV 6 ------- 0 0.1 2.1 -1 1
+ 0.010175 2 0 rtProtoDV 6 ------- 0 2.1 0.1 -1 7
- 0.010175 2 0 rtProtoDV 6 ------- 0 2.1 0.1 -1 7
r 0.010175 0 3 rtProtoDV 6 ------- 0 0.1 3.1 -1 2
+ 0.010175 3 0 rtProtoDV 6 ------- 0 3.1 0.1 -1 8
- 0.010175 3 0 rtProtoDV 6 ------- 0 3.1 0.1 -1 8
r 0.010175 0 4 rtProtoDV 6 ------- 0 0.1 4.1 -1 3
+ 0.010175 4 0 rtProtoDV 6 ------- 0 4.1 0.1 -1 9
- 0.010175 4 0 rtProtoDV 6 ------- 0 4.1 0.1 -1 9
r 0.010175 0 5 rtProtoDV 6 ------- 0 0.1 5.2 -1 4
+ 0.010175 5 0 rtProtoDV 6 ------- 0 5.2 0.1 -1 10
- 0.010175 5 0 rtProtoDV 6 ------- 0 5.2 0.1 -1 10
r 0.017107 2 0 rtProtoDV 6 ------- 0 2.1 0.1 -1 5
r 0.020179 1 0 rtProtoDV 6 ------- 0 1.2 0.1 -1 6
r 0.020179 2 0 rtProtoDV 6 ------- 0 2.1 0.1 -1 7
r 0.020179 3 0 rtProtoDV 6 ------- 0 3.1 0.1 -1 8
r 0.020179 4 0 rtProtoDV 6 ------- 0 4.1 0.1 -1 9
r 0.020179 5 0 rtProtoDV 6 ------- 0 5.2 0.1 -1 10
+ 0.044061 3 0 rtProtoDV 6 ------- 0 3.1 0.1 -1 11
- 0.044061 3 0 rtProtoDV 6 ------- 0 3.1 0.1 -1 11
r 0.054066 3 0 rtProtoDV 6 ------- 0 3.1 0.1 -1 11
+ 0.220587 4 0 rtProtoDV 6 ------- 0 4.1 0.1 -1 12
- 0.220587 4 0 rtProtoDV 6 ------- 0 4.1 0.1 -1 12
r 0.230591 4 0 rtProtoDV 6 ------- 0 4.1 0.1 -1 12
+ 0.27794 1 0 rtProtoDV 6 ------- 0 1.2 0.1 -1 13
- 0.27794 1 0 rtProtoDV 6 ------- 0 1.2 0.1 -1 13
r 0.287945 1 0 rtProtoDV 6 ------- 0 1.2 0.1 -1 13
+ 0.399578 5 0 rtProtoDV 6 ------- 0 5.2 0.1 -1 14
- 0.399578 5 0 rtProtoDV 6 ------- 0 5.2 0.1 -1 14
r 0.409583 5 0 rtProtoDV 6 ------- 0 5.2 0.1 -1 14
+ 1 1 0 tcp 40 ------- 0 1.0 5.0 0 15
- 1 1 0 tcp 40 ------- 0 1.0 5.0 0 15
r 1.010032 1 0 tcp 40 ------- 0 1.0 5.0 0 15
+ 1.010032 0 5 tcp 40 ------- 0 1.0 5.0 0 15
- 1.010032 0 5 tcp 40 ------- 0 1.0 5.0 0 15
r 1.020064 0 5 tcp 40 ------- 0 1.0 5.0 0 15
+ 1.020064 5 0 ack 40 ------- 0 5.0 1.0 0 16
- 1.020064 5 0 ack 40 ------- 0 5.0 1.0 0 16
r 1.030096 5 0 ack 40 ------- 0 5.0 1.0 0 16
+ 1.030096 0 1 ack 40 ------- 0 5.0 1.0 0 16
- 1.030096 0 1 ack 40 ------- 0 5.0 1.0 0 16
r 1.040128 0 1 ack 40 ------- 0 5.0 1.0 0 16
+ 1.040128 1 0 tcp 1040 ------- 0 1.0 5.0 1 17
- 1.040128 1 0 tcp 1040 ------- 0 1.0 5.0 1 17
+ 1.040128 1 0 tcp 1040 ------- 0 1.0 5.0 2 18
- 1.04096 1 0 tcp 1040 ------- 0 1.0 5.0 2 18
r 1.05096 1 0 tcp 1040 ------- 0 1.0 5.0 1 17
+ 1.05096 0 5 tcp 1040 ------- 0 1.0 5.0 1 17
- 1.05096 0 5 tcp 1040 ------- 0 1.0 5.0 1 17
r 1.051792 1 0 tcp 1040 ------- 0 1.0 5.0 2 18
+ 1.051792 0 5 tcp 1040 ------- 0 1.0 5.0 2 18
- 1.051792 0 5 tcp 1040 ------- 0 1.0 5.0 2 18
r 1.061792 0 5 tcp 1040 ------- 0 1.0 5.0 1 17
+ 1.061792 5 0 ack 40 ------- 0 5.0 1.0 1 19
- 1.061792 5 0 ack 40 ------- 0 5.0 1.0 1 19
r 1.062624 0 5 tcp 1040 ------- 0 1.0 5.0 2 18
+ 1.062624 5 0 ack 40 ------- 0 5.0 1.0 2 20
- 1.062624 5 0 ack 40 ------- 0 5.0 1.0 2 20
r 1.071824 5 0 ack 40 ------- 0 5.0 1.0 1 19
+ 1.071824 0 1 ack 40 ------- 0 5.0 1.0 1 19
- 1.071824 0 1 ack 40 ------- 0 5.0 1.0 1 19
r 1.072656 5 0 ack 40 ------- 0 5.0 1.0 2 20
+ 1.072656 0 1 ack 40 ------- 0 5.0 1.0 2 20
- 1.072656 0 1 ack 40 ------- 0 5.0 1.0 2 20
r 1.081856 0 1 ack 40 ------- 0 5.0 1.0 1 19
+ 1.081856 1 0 tcp 1040 ------- 0 1.0 5.0 3 21
- 1.081856 1 0 tcp 1040 ------- 0 1.0 5.0 3 21
+ 1.081856 1 0 tcp 1040 ------- 0 1.0 5.0 4 22
r 1.082688 0 1 ack 40 ------- 0 5.0 1.0 2 20
+ 1.082688 1 0 tcp 1040 ------- 0 1.0 5.0 5 23
+ 1.082688 1 0 tcp 1040 ------- 0 1.0 5.0 6 24
- 1.082688 1 0 tcp 1040 ------- 0 1.0 5.0 4 22
- 1.08352 1 0 tcp 1040 ------- 0 1.0 5.0 5 23
- 1.084352 1 0 tcp 1040 ------- 0 1.0 5.0 6 24
r 1.092688 1 0 tcp 1040 ------- 0 1.0 5.0 3 21
+ 1.092688 0 5 tcp 1040 ------- 0 1.0 5.0 3 21
- 1.092688 0 5 tcp 1040 ------- 0 1.0 5.0 3 21
r 1.09352 1 0 tcp 1040 ------- 0 1.0 5.0 4 22
+ 1.09352 0 5 tcp 1040 ------- 0 1.0 5.0 4 22
- 1.09352 0 5 tcp 1040 ------- 0 1.0 5.0 4 22
r 1.094352 1 0 tcp 1040 ------- 0 1.0 5.0 5 23
+ 1.094352 0 5 tcp 1040 ------- 0 1.0 5.0 5 23
- 1.094352 0 5 tcp 1040 ------- 0 1.0 5.0 5 23
r 1.095184 1 0 tcp 1040 ------- 0 1.0 5.0 6 24
+ 1.095184 0 5 tcp 1040 ------- 0 1.0 5.0 6 24
- 1.095184 0 5 tcp 1040 ------- 0 1.0 5.0 6 24
r 1.10352 0 5 tcp 1040 ------- 0 1.0 5.0 3 21
+ 1.10352 5 0 ack 40 ------- 0 5.0 1.0 3 25
- 1.10352 5 0 ack 40 ------- 0 5.0 1.0 3 25
r 1.104352 0 5 tcp 1040 ------- 0 1.0 5.0 4 22
+ 1.104352 5 0 ack 40 ------- 0 5.0 1.0 4 26
- 1.104352 5 0 ack 40 ------- 0 5.0 1.0 4 26
r 1.105184 0 5 tcp 1040 ------- 0 1.0 5.0 5 23
+ 1.105184 5 0 ack 40 ------- 0 5.0 1.0 5 27
- 1.105184 5 0 ack 40 ------- 0 5.0 1.0 5 27
r 1.106016 0 5 tcp 1040 ------- 0 1.0 5.0 6 24
+ 1.106016 5 0 ack 40 ------- 0 5.0 1.0 6 28
- 1.106016 5 0 ack 40 ------- 0 5.0 1.0 6 28
r 1.113552 5 0 ack 40 ------- 0 5.0 1.0 3 25
+ 1.113552 0 1 ack 40 ------- 0 5.0 1.0 3 25
- 1.113552 0 1 ack 40 ------- 0 5.0 1.0 3 25
r 1.114384 5 0 ack 40 ------- 0 5.0 1.0 4 26
+ 1.114384 0 1 ack 40 ------- 0 5.0 1.0 4 26
- 1.114384 0 1 ack 40 ------- 0 5.0 1.0 4 26
r 1.115216 5 0 ack 40 ------- 0 5.0 1.0 5 27
+ 1.115216 0 1 ack 40 ------- 0 5.0 1.0 5 27
- 1.115216 0 1 ack 40 ------- 0 5.0 1.0 5 27
r 1.116048 5 0 ack 40 ------- 0 5.0 1.0 6 28
+ 1.116048 0 1 ack 40 ------- 0 5.0 1.0 6 28
- 1.116048 0 1 ack 40 ------- 0 5.0 1.0 6 28
r 1.123584 0 1 ack 40 ------- 0 5.0 1.0 3 25
+ 1.123584 1 0 tcp 1040 ------- 0 1.0 5.0 7 29
- 1.123584 1 0 tcp 1040 ------- 0 1.0 5.0 7 29
+ 1.123584 1 0 tcp 1040 ------- 0 1.0 5.0 8 30
r 1.124416 0 1 ack 40 ------- 0 5.0 1.0 4 26
+ 1.124416 1 0 tcp 1040 ------- 0 1.0 5.0 9 31
+ 1.124416 1 0 tcp 1040 ------- 0 1.0 5.0 10 32
- 1.124416 1 0 tcp 1040 ------- 0 1.0 5.0 8 30
r 1.125248 0 1 ack 40 ------- 0 5.0 1.0 5 27
+ 1.125248 1 0 tcp 1040 ------- 0 1.0 5.0 11 33
+ 1.125248 1 0 tcp 1040 ------- 0 1.0 5.0 12 34
- 1.125248 1 0 tcp 1040 ------- 0 1.0 5.0 9 31
r 1.12608 0 1 ack 40 ------- 0 5.0 1.0 6 28
+ 1.12608 1 0 tcp 1040 ------- 0 1.0 5.0 13 35
+ 1.12608 1 0 tcp 1040 ------- 0 1.0 5.0 14 36
- 1.12608 1 0 tcp 1040 ------- 0 1.0 5.0 10 32
- 1.126912 1 0 tcp 1040 ------- 0 1.0 5.0 11 33
- 1.127744 1 0 tcp 1040 ------- 0 1.0 5.0 12 34
- 1.128576 1 0 tcp 1040 ------- 0 1.0 5.0 13 35
- 1.129408 1 0 tcp 1040 ------- 0 1.0 5.0 14 36
r 1.134416 1 0 tcp 1040 ------- 0 1.0 5.0 7 29
+ 1.134416 0 5 tcp 1040 ------- 0 1.0 5.0 7 29
- 1.134416 0 5 tcp 1040 ------- 0 1.0 5.0 7 29
r 1.135248 1 0 tcp 1040 ------- 0 1.0 5.0 8 30
+ 1.135248 0 5 tcp 1040 ------- 0 1.0 5.0 8 30
- 1.135248 0 5 tcp 1040 ------- 0 1.0 5.0 8 30
r 1.13608 1 0 tcp 1040 ------- 0 1.0 5.0 9 31
+ 1.13608 0 5 tcp 1040 ------- 0 1.0 5.0 9 31
- 1.13608 0 5 tcp 1040 ------- 0 1.0 5.0 9 31
r 1.136912 1 0 tcp 1040 ------- 0 1.0 5.0 10 32
+ 1.136912 0 5 tcp 1040 ------- 0 1.0 5.0 10 32
- 1.136912 0 5 tcp 1040 ------- 0 1.0 5.0 10 32
r 1.137744 1 0 tcp 1040 ------- 0 1.0 5.0 11 33
+ 1.137744 0 5 tcp 1040 ------- 0 1.0 5.0 11 33
- 1.137744 0 5 tcp 1040 ------- 0 1.0 5.0 11 33
r 1.138576 1 0 tcp 1040 ------- 0 1.0 5.0 12 34
+ 1.138576 0 5 tcp 1040 ------- 0 1.0 5.0 12 34
- 1.138576 0 5 tcp 1040 ------- 0 1.0 5.0 12 34
r 1.139408 1 0 tcp 1040 ------- 0 1.0 5.0 13 35
+ 1.139408 0 5 tcp 1040 ------- 0 1.0 5.0 13 35
- 1.139408 0 5 tcp 1040 ------- 0 1.0 5.0 13 35
r 1.14024 1 0 tcp 1040 ------- 0 1.0 5.0 14 36
+ 1.14024 0 5 tcp 1040 ------- 0 1.0 5.0 14 36
- 1.14024 0 5 tcp 1040 ------- 0 1.0 5.0 14 36
r 1.145248 0 5 tcp 1040 ------- 0 1.0 5.0 7 29
+ 1.145248 5 0 ack 40 ------- 0 5.0 1.0 7 37
- 1.145248 5 0 ack 40 ------- 0 5.0 1.0 7 37
r 1.14608 0 5 tcp 1040 ------- 0 1.0 5.0 8 30
+ 1.14608 5 0 ack 40 ------- 0 5.0 1.0 8 38
- 1.14608 5 0 ack 40 ------- 0 5.0 1.0 8 38
r 1.146912 0 5 tcp 1040 ------- 0 1.0 5.0 9 31
+ 1.146912 5 0 ack 40 ------- 0 5.0 1.0 9 39
- 1.146912 5 0 ack 40 ------- 0 5.0 1.0 9 39
r 1.147744 0 5 tcp 1040 ------- 0 1.0 5.0 10 32
+ 1.147744 5 0 ack 40 ------- 0 5.0 1.0 10 40
- 1.147744 5 0 ack 40 ------- 0 5.0 1.0 10 40
r 1.148576 0 5 tcp 1040 ------- 0 1.0 5.0 11 33
+ 1.148576 5 0 ack 40 ------- 0 5.0 1.0 11 41
- 1.148576 5 0 ack 40 ------- 0 5.0 1.0 11 41
r 1.149408 0 5 tcp 1040 ------- 0 1.0 5.0 12 34
+ 1.149408 5 0 ack 40 ------- 0 5.0 1.0 12 42
- 1.149408 5 0 ack 40 ------- 0 5.0 1.0 12 42
r 1.15024 0 5 tcp 1040 ------- 0 1.0 5.0 13 35
+ 1.15024 5 0 ack 40 ------- 0 5.0 1.0 13 43
- 1.15024 5 0 ack 40 ------- 0 5.0 1.0 13 43
r 1.151072 0 5 tcp 1040 ------- 0 1.0 5.0 14 36
+ 1.151072 5 0 ack 40 ------- 0 5.0 1.0 14 44
- 1.151072 5 0 ack 40 ------- 0 5.0 1.0 14 44
r 1.15528 5 0 ack 40 ------- 0 5.0 1.0 7 37
+ 1.15528 0 1 ack 40 ------- 0 5.0 1.0 7 37
- 1.15528 0 1 ack 40 ------- 0 5.0 1.0 7 37
r 1.156112 5 0 ack 40 ------- 0 5.0 1.0 8 38
+ 1.156112 0 1 ack 40 ------- 0 5.0 1.0 8 38
- 1.156112 0 1 ack 40 ------- 0 5.0 1.0 8 38
r 1.156944 5 0 ack 40 ------- 0 5.0 1.0 9 39
+ 1.156944 0 1 ack 40 ------- 0 5.0 1.0 9 39
- 1.156944 0 1 ack 40 ------- 0 5.0 1.0 9 39
r 1.157776 5 0 ack 40 ------- 0 5.0 1.0 10 40
+ 1.157776 0 1 ack 40 ------- 0 5.0 1.0 10 40
- 1.157776 0 1 ack 40 ------- 0 5.0 1.0 10 40
r 1.158608 5 0 ack 40 ------- 0 5.0 1.0 11 41
+ 1.158608 0 1 ack 40 ------- 0 5.0 1.0 11 41
- 1.158608 0 1 ack 40 ------- 0 5.0 1.0 11 41
r 1.15944 5 0 ack 40 ------- 0 5.0 1.0 12 42
+ 1.15944 0 1 ack 40 ------- 0 5.0 1.0 12 42
- 1.15944 0 1 ack 40 ------- 0 5.0 1.0 12 42
r 1.160272 5 0 ack 40 ------- 0 5.0 1.0 13 43
+ 1.160272 0 1 ack 40 ------- 0 5.0 1.0 13 43
- 1.160272 0 1 ack 40 ------- 0 5.0 1.0 13 43
r 1.161104 5 0 ack 40 ------- 0 5.0 1.0 14 44
+ 1.161104 0 1 ack 40 ------- 0 5.0 1.0 14 44
- 1.161104 0 1 ack 40 ------- 0 5.0 1.0 14 44
r 1.165312 0 1 ack 40 ------- 0 5.0 1.0 7 37
+ 1.165312 1 0 tcp 1040 ------- 0 1.0 5.0 15 45
- 1.165312 1 0 tcp 1040 ------- 0 1.0 5.0 15 45
+ 1.165312 1 0 tcp 1040 ------- 0 1.0 5.0 16 46
r 1.166144 0 1 ack 40 ------- 0 5.0 1.0 8 38
+ 1.166144 1 0 tcp 1040 ------- 0 1.0 5.0 17 47
+ 1.166144 1 0 tcp 1040 ------- 0 1.0 5.0 18 48
- 1.166144 1 0 tcp 1040 ------- 0 1.0 5.0 16 46
r 1.166976 0 1 ack 40 ------- 0 5.0 1.0 9 39
+ 1.166976 1 0 tcp 1040 ------- 0 1.0 5.0 19 49
+ 1.166976 1 0 tcp 1040 ------- 0 1.0 5.0 20 50
- 1.166976 1 0 tcp 1040 ------- 0 1.0 5.0 17 47
r 1.167808 0 1 ack 40 ------- 0 5.0 1.0 10 40
+ 1.167808 1 0 tcp 1040 ------- 0 1.0 5.0 21 51
+ 1.167808 1 0 tcp 1040 ------- 0 1.0 5.0 22 52
- 1.167808 1 0 tcp 1040 ------- 0 1.0 5.0 18 48
r 1.16864 0 1 ack 40 ------- 0 5.0 1.0 11 41
+ 1.16864 1 0 tcp 1040 ------- 0 1.0 5.0 23 53
+ 1.16864 1 0 tcp 1040 ------- 0 1.0 5.0 24 54
- 1.16864 1 0 tcp 1040 ------- 0 1.0 5.0 19 49
r 1.169472 0 1 ack 40 ------- 0 5.0 1.0 12 42
+ 1.169472 1 0 tcp 1040 ------- 0 1.0 5.0 25 55
+ 1.169472 1 0 tcp 1040 ------- 0 1.0 5.0 26 56
- 1.169472 1 0 tcp 1040 ------- 0 1.0 5.0 20 50
r 1.170304 0 1 ack 40 ------- 0 5.0 1.0 13 43
+ 1.170304 1 0 tcp 1040 ------- 0 1.0 5.0 27 57
+ 1.170304 1 0 tcp 1040 ------- 0 1.0 5.0 28 58
- 1.170304 1 0 tcp 1040 ------- 0 1.0 5.0 21 51
r 1.171136 0 1 ack 40 ------- 0 5.0 1.0 14 44
+ 1.171136 1 0 tcp 1040 ------- 0 1.0 5.0 29 59
+ 1.171136 1 0 tcp 1040 ------- 0 1.0 5.0 30 60
- 1.171136 1 0 tcp 1040 ------- 0 1.0 5.0 22 52
- 1.171968 1 0 tcp 1040 ------- 0 1.0 5.0 23 53
- 1.1728 1 0 tcp 1040 ------- 0 1.0 5.0 24 54
- 1.173632 1 0 tcp 1040 ------- 0 1.0 5.0 25 55
- 1.174464 1 0 tcp 1040 ------- 0 1.0 5.0 26 56
- 1.175296 1 0 tcp 1040 ------- 0 1.0 5.0 27 57
- 1.176128 1 0 tcp 1040 ------- 0 1.0 5.0 28 58
r 1.176144 1 0 tcp 1040 ------- 0 1.0 5.0 15 45
+ 1.176144 0 5 tcp 1040 ------- 0 1.0 5.0 15 45
- 1.176144 0 5 tcp 1040 ------- 0 1.0 5.0 15 45
- 1.17696 1 0 tcp 1040 ------- 0 1.0 5.0 29 59
r 1.176976 1 0 tcp 1040 ------- 0 1.0 5.0 16 46
+ 1.176976 0 5 tcp 1040 ------- 0 1.0 5.0 16 46
- 1.176976 0 5 tcp 1040 ------- 0 1.0 5.0 16 46
- 1.177792 1 0 tcp 1040 ------- 0 1.0 5.0 30 60
r 1.177808 1 0 tcp 1040 ------- 0 1.0 5.0 17 47
+ 1.177808 0 5 tcp 1040 ------- 0 1.0 5.0 17 47
- 1.177808 0 5 tcp 1040 ------- 0 1.0 5.0 17 47
r 1.17864 1 0 tcp 1040 ------- 0 1.0 5.0 18 48
+ 1.17864 0 5 tcp 1040 ------- 0 1.0 5.0 18 48
- 1.17864 0 5 tcp 1040 ------- 0 1.0 5.0 18 48
r 1.179472 1 0 tcp 1040 ------- 0 1.0 5.0 19 49
+ 1.179472 0 5 tcp 1040 ------- 0 1.0 5.0 19 49
- 1.179472 0 5 tcp 1040 ------- 0 1.0 5.0 19 49
r 1.180304 1 0 tcp 1040 ------- 0 1.0 5.0 20 50
+ 1.180304 0 5 tcp 1040 ------- 0 1.0 5.0 20 50
- 1.180304 0 5 tcp 1040 ------- 0 1.0 5.0 20 50
r 1.181136 1 0 tcp 1040 ------- 0 1.0 5.0 21 51
+ 1.181136 0 5 tcp 1040 ------- 0 1.0 5.0 21 51
- 1.181136 0 5 tcp 1040 ------- 0 1.0 5.0 21 51
r 1.181968 1 0 tcp 1040 ------- 0 1.0 5.0 22 52
+ 1.181968 0 5 tcp 1040 ------- 0 1.0 5.0 22 52
- 1.181968 0 5 tcp 1040 ------- 0 1.0 5.0 22 52
r 1.1828 1 0 tcp 1040 ------- 0 1.0 5.0 23 53
+ 1.1828 0 5 tcp 1040 ------- 0 1.0 5.0 23 53
- 1.1828 0 5 tcp 1040 ------- 0 1.0 5.0 23 53
r 1.183632 1 0 tcp 1040 ------- 0 1.0 5.0 24 54
+ 1.183632 0 5 tcp 1040 ------- 0 1.0 5.0 24 54
- 1.183632 0 5 tcp 1040 ------- 0 1.0 5.0 24 54
r 1.184464 1 0 tcp 1040 ------- 0 1.0 5.0 25 55
+ 1.184464 0 5 tcp 1040 ------- 0 1.0 5.0 25 55
- 1.184464 0 5 tcp 1040 ------- 0 1.0 5.0 25 55
r 1.185296 1 0 tcp 1040 ------- 0 1.0 5.0 26 56
+ 1.185296 0 5 tcp 1040 ------- 0 1.0 5.0 26 56
- 1.185296 0 5 tcp 1040 ------- 0 1.0 5.0 26 56
r 1.186128 1 0 tcp 1040 ------- 0 1.0 5.0 27 57
+ 1.186128 0 5 tcp 1040 ------- 0 1.0 5.0 27 57
- 1.186128 0 5 tcp 1040 ------- 0 1.0 5.0 27 57
r 1.18696 1 0 tcp 1040 ------- 0 1.0 5.0 28 58
+ 1.18696 0 5 tcp 1040 ------- 0 1.0 5.0 28 58
- 1.18696 0 5 tcp 1040 ------- 0 1.0 5.0 28 58
r 1.186976 0 5 tcp 1040 ------- 0 1.0 5.0 15 45
+ 1.186976 5 0 ack 40 ------- 0 5.0 1.0 15 61
- 1.186976 5 0 ack 40 ------- 0 5.0 1.0 15 61
r 1.187792 1 0 tcp 1040 ------- 0 1.0 5.0 29 59
+ 1.187792 0 5 tcp 1040 ------- 0 1.0 5.0 29 59
- 1.187792 0 5 tcp 1040 ------- 0 1.0 5.0 29 59
r 1.187808 0 5 tcp 1040 ------- 0 1.0 5.0 16 46
+ 1.187808 5 0 ack 40 ------- 0 5.0 1.0 16 62
- 1.187808 5 0 ack 40 ------- 0 5.0 1.0 16 62
r 1.188624 1 0 tcp 1040 ------- 0 1.0 5.0 30 60
+ 1.188624 0 5 tcp 1040 ------- 0 1.0 5.0 30 60
- 1.188624 0 5 tcp 1040 ------- 0 1.0 5.0 30 60
r 1.18864 0 5 tcp 1040 ------- 0 1.0 5.0 17 47
+ 1.18864 5 0 ack 40 ------- 0 5.0 1.0 17 63
- 1.18864 5 0 ack 40 ------- 0 5.0 1.0 17 63
r 1.189472 0 5 tcp 1040 ------- 0 1.0 5.0 18 48
+ 1.189472 5 0 ack 40 ------- 0 5.0 1.0 18 64
- 1.189472 5 0 ack 40 ------- 0 5.0 1.0 18 64
r 1.190304 0 5 tcp 1040 ------- 0 1.0 5.0 19 49
+ 1.190304 5 0 ack 40 ------- 0 5.0 1.0 19 65
- 1.190304 5 0 ack 40 ------- 0 5.0 1.0 19 65
r 1.191136 0 5 tcp 1040 ------- 0 1.0 5.0 20 50
+ 1.191136 5 0 ack 40 ------- 0 5.0 1.0 20 66
- 1.191136 5 0 ack 40 ------- 0 5.0 1.0 20 66
r 1.191968 0 5 tcp 1040 ------- 0 1.0 5.0 21 51
+ 1.191968 5 0 ack 40 ------- 0 5.0 1.0 21 67
- 1.191968 5 0 ack 40 ------- 0 5.0 1.0 21 67
r 1.1928 0 5 tcp 1040 ------- 0 1.0 5.0 22 52
+ 1.1928 5 0 ack 40 ------- 0 5.0 1.0 22 68
- 1.1928 5 0 ack 40 ------- 0 5.0 1.0 22 68
r 1.193632 0 5 tcp 1040 ------- 0 1.0 5.0 23 53
+ 1.193632 5 0 ack 40 ------- 0 5.0 1.0 23 69
- 1.193632 5 0 ack 40 ------- 0 5.0 1.0 23 69
r 1.194464 0 5 tcp 1040 ------- 0 1.0 5.0 24 54
+ 1.194464 5 0 ack 40 ------- 0 5.0 1.0 24 70
- 1.194464 5 0 ack 40 ------- 0 5.0 1.0 24 70
r 1.195296 0 5 tcp 1040 ------- 0 1.0 5.0 25 55
+ 1.195296 5 0 ack 40 ------- 0 5.0 1.0 25 71
- 1.195296 5 0 ack 40 ------- 0 5.0 1.0 25 71
r 1.196128 0 5 tcp 1040 ------- 0 1.0 5.0 26 56
+ 1.196128 5 0 ack 40 ------- 0 5.0 1.0 26 72
- 1.196128 5 0 ack 40 ------- 0 5.0 1.0 26 72
r 1.19696 0 5 tcp 1040 ------- 0 1.0 5.0 27 57
+ 1.19696 5 0 ack 40 ------- 0 5.0 1.0 27 73
- 1.19696 5 0 ack 40 ------- 0 5.0 1.0 27 73
r 1.197008 5 0 ack 40 ------- 0 5.0 1.0 15 61
+ 1.197008 0 1 ack 40 ------- 0 5.0 1.0 15 61
- 1.197008 0 1 ack 40 ------- 0 5.0 1.0 15 61
r 1.197792 0 5 tcp 1040 ------- 0 1.0 5.0 28 58
+ 1.197792 5 0 ack 40 ------- 0 5.0 1.0 28 74
- 1.197792 5 0 ack 40 ------- 0 5.0 1.0 28 74
r 1.19784 5 0 ack 40 ------- 0 5.0 1.0 16 62
+ 1.19784 0 1 ack 40 ------- 0 5.0 1.0 16 62
- 1.19784 0 1 ack 40 ------- 0 5.0 1.0 16 62
r 1.198624 0 5 tcp 1040 ------- 0 1.0 5.0 29 59
+ 1.198624 5 0 ack 40 ------- 0 5.0 1.0 29 75
- 1.198624 5 0 ack 40 ------- 0 5.0 1.0 29 75
r 1.198672 5 0 ack 40 ------- 0 5.0 1.0 17 63
+ 1.198672 0 1 ack 40 ------- 0 5.0 1.0 17 63
- 1.198672 0 1 ack 40 ------- 0 5.0 1.0 17 63
r 1.199456 0 5 tcp 1040 ------- 0 1.0 5.0 30 60
+ 1.199456 5 0 ack 40 ------- 0 5.0 1.0 30 76
- 1.199456 5 0 ack 40 ------- 0 5.0 1.0 30 76
r 1.199504 5 0 ack 40 ------- 0 5.0 1.0 18 64
+ 1.199504 0 1 ack 40 ------- 0 5.0 1.0 18 64
- 1.199504 0 1 ack 40 ------- 0 5.0 1.0 18 64
r 1.200336 5 0 ack 40 ------- 0 5.0 1.0 19 65
+ 1.200336 0 1 ack 40 ------- 0 5.0 1.0 19 65
- 1.200336 0 1 ack 40 ------- 0 5.0 1.0 19 65
r 1.201168 5 0 ack 40 ------- 0 5.0 1.0 20 66
+ 1.201168 0 1 ack 40 ------- 0 5.0 1.0 20 66
- 1.201168 0 1 ack 40 ------- 0 5.0 1.0 20 66
r 1.202 5 0 ack 40 ------- 0 5.0 1.0 21 67
+ 1.202 0 1 ack 40 ------- 0 5.0 1.0 21 67
- 1.202 0 1 ack 40 ------- 0 5.0 1.0 21 67
r 1.202832 5 0 ack 40 ------- 0 5.0 1.0 22 68
+ 1.202832 0 1 ack 40 ------- 0 5.0 1.0 22 68
- 1.202832 0 1 ack 40 ------- 0 5.0 1.0 22 68
r 1.203664 5 0 ack 40 ------- 0 5.0 1.0 23 69
+ 1.203664 0 1 ack 40 ------- 0 5.0 1.0 23 69
- 1.203664 0 1 ack 40 ------- 0 5.0 1.0 23 69
r 1.204496 5 0 ack 40 ------- 0 5.0 1.0 24 70
+ 1.204496 0 1 ack 40 ------- 0 5.0 1.0 24 70
- 1.204496 0 1 ack 40 ------- 0 5.0 1.0 24 70
r 1.205328 5 0 ack 40 ------- 0 5.0 1.0 25 71
+ 1.205328 0 1 ack 40 ------- 0 5.0 1.0 25 71
- 1.205328 0 1 ack 40 ------- 0 5.0 1.0 25 71
r 1.20616 5 0 ack 40 ------- 0 5.0 1.0 26 72
+ 1.20616 0 1 ack 40 ------- 0 5.0 1.0 26 72
- 1.20616 0 1 ack 40 ------- 0 5.0 1.0 26 72
r 1.206992 5 0 ack 40 ------- 0 5.0 1.0 27 73
+ 1.206992 0 1 ack 40 ------- 0 5.0 1.0 27 73
- 1.206992 0 1 ack 40 ------- 0 5.0 1.0 27 73
r 1.20704 0 1 ack 40 ------- 0 5.0 1.0 15 61
+ 1.20704 1 0 tcp 1040 ------- 0 1.0 5.0 31 77
- 1.20704 1 0 tcp 1040 ------- 0 1.0 5.0 31 77
+ 1.20704 1 0 tcp 1040 ------- 0 1.0 5.0 32 78
r 1.207824 5 0 ack 40 ------- 0 5.0 1.0 28 74
+ 1.207824 0 1 ack 40 ------- 0 5.0 1.0 28 74
- 1.207824 0 1 ack 40 ------- 0 5.0 1.0 28 74
r 1.207872 0 1 ack 40 ------- 0 5.0 1.0 16 62
+ 1.207872 1 0 tcp 1040 ------- 0 1.0 5.0 33 79
+ 1.207872 1 0 tcp 1040 ------- 0 1.0 5.0 34 80
- 1.207872 1 0 tcp 1040 ------- 0 1.0 5.0 32 78
r 1.208656 5 0 ack 40 ------- 0 5.0 1.0 29 75
+ 1.208656 0 1 ack 40 ------- 0 5.0 1.0 29 75
- 1.208656 0 1 ack 40 ------- 0 5.0 1.0 29 75
r 1.208704 0 1 ack 40 ------- 0 5.0 1.0 17 63
+ 1.208704 1 0 tcp 1040 ------- 0 1.0 5.0 35 81
+ 1.208704 1 0 tcp 1040 ------- 0 1.0 5.0 36 82
- 1.208704 1 0 tcp 1040 ------- 0 1.0 5.0 33 79
r 1.209488 5 0 ack 40 ------- 0 5.0 1.0 30 76
+ 1.209488 0 1 ack 40 ------- 0 5.0 1.0 30 76
- 1.209488 0 1 ack 40 ------- 0 5.0 1.0 30 76
r 1.209536 0 1 ack 40 ------- 0 5.0 1.0 18 64
+ 1.209536 1 0 tcp 1040 ------- 0 1.0 5.0 37 83
+ 1.209536 1 0 tcp 1040 ------- 0 1.0 5.0 38 84
- 1.209536 1 0 tcp 1040 ------- 0 1.0 5.0 34 80
r 1.210368 0 1 ack 40 ------- 0 5.0 1.0 19 65
+ 1.210368 1 0 tcp 1040 ------- 0 1.0 5.0 39 85
- 1.210368 1 0 tcp 1040 ------- 0 1.0 5.0 35 81
r 1.2112 0 1 ack 40 ------- 0 5.0 1.0 20 66
+ 1.2112 1 0 tcp 1040 ------- 0 1.0 5.0 40 86
- 1.2112 1 0 tcp 1040 ------- 0 1.0 5.0 36 82
r 1.212032 0 1 ack 40 ------- 0 5.0 1.0 21 67
+ 1.212032 1 0 tcp 1040 ------- 0 1.0 5.0 41 87
- 1.212032 1 0 tcp 1040 ------- 0 1.0 5.0 37 83
r 1.212864 0 1 ack 40 ------- 0 5.0 1.0 22 68
+ 1.212864 1 0 tcp 1040 ------- 0 1.0 5.0 42 88
- 1.212864 1 0 tcp 1040 ------- 0 1.0 5.0 38 84
r 1.213696 0 1 ack 40 ------- 0 5.0 1.0 23 69
+ 1.213696 1 0 tcp 1040 ------- 0 1.0 5.0 43 89
- 1.213696 1 0 tcp 1040 ------- 0 1.0 5.0 39 85
r 1.214528 0 1 ack 40 ------- 0 5.0 1.0 24 70
+ 1.214528 1 0 tcp 1040 ------- 0 1.0 5.0 44 90
- 1.214528 1 0 tcp 1040 ------- 0 1.0 5.0 40 86
r 1.21536 0 1 ack 40 ------- 0 5.0 1.0 25 71
+ 1.21536 1 0 tcp 1040 ------- 0 1.0 5.0 45 91
- 1.21536 1 0 tcp 1040 ------- 0 1.0 5.0 41 87
r 1.216192 0 1 ack 40 ------- 0 5.0 1.0 26 72
+ 1.216192 1 0 tcp 1040 ------- 0 1.0 5.0 46 92
- 1.216192 1 0 tcp 1040 ------- 0 1.0 5.0 42 88
r 1.217024 0 1 ack 40 ------- 0 5.0 1.0 27 73
+ 1.217024 1 0 tcp 1040 ------- 0 1.0 5.0 47 93
- 1.217024 1 0 tcp 1040 ------- 0 1.0 5.0 43 89
r 1.217856 0 1 ack 40 ------- 0 5.0 1.0 28 74
+ 1.217856 1 0 tcp 1040 ------- 0 1.0 5.0 48 94
- 1.217856 1 0 tcp 1040 ------- 0 1.0 5.0 44 90
r 1.217872 1 0 tcp 1040 ------- 0 1.0 5.0 31 77
+ 1.217872 0 5 tcp 1040 ------- 0 1.0 5.0 31 77
- 1.217872 0 5 tcp 1040 ------- 0 1.0 5.0 31 77
r 1.218688 0 1 ack 40 ------- 0 5.0 1.0 29 75
+ 1.218688 1 0 tcp 1040 ------- 0 1.0 5.0 49 95
- 1.218688 1 0 tcp 1040 ------- 0 1.0 5.0 45 91
r 1.218704 1 0 tcp 1040 ------- 0 1.0 5.0 32 78
+ 1.218704 0 5 tcp 1040 ------- 0 1.0 5.0 32 78
- 1.218704 0 5 tcp 1040 ------- 0 1.0 5.0 32 78
r 1.21952 0 1 ack 40 ------- 0 5.0 1.0 30 76
+ 1.21952 1 0 tcp 1040 ------- 0 1.0 5.0 50 96
- 1.21952 1 0 tcp 1040 ------- 0 1.0 5.0 46 92
r 1.219536 1 0 tcp 1040 ------- 0 1.0 5.0 33 79
+ 1.219536 0 5 tcp 1040 ------- 0 1.0 5.0 33 79
- 1.219536 0 5 tcp 1040 ------- 0 1.0 5.0 33 79
- 1.220352 1 0 tcp 1040 ------- 0 1.0 5.0 47 93
r 1.220368 1 0 tcp 1040 ------- 0 1.0 5.0 34 80
+ 1.220368 0 5 tcp 1040 ------- 0 1.0 5.0 34 80
- 1.220368 0 5 tcp 1040 ------- 0 1.0 5.0 34 80
- 1.221184 1 0 tcp 1040 ------- 0 1.0 5.0 48 94
r 1.2212 1 0 tcp 1040 ------- 0 1.0 5.0 35 81
+ 1.2212 0 5 tcp 1040 ------- 0 1.0 5.0 35 81
- 1.2212 0 5 tcp 1040 ------- 0 1.0 5.0 35 81
- 1.222016 1 0 tcp 1040 ------- 0 1.0 5.0 49 95
r 1.222032 1 0 tcp 1040 ------- 0 1.0 5.0 36 82
+ 1.222032 0 5 tcp 1040 ------- 0 1.0 5.0 36 82
- 1.222032 0 5 tcp 1040 ------- 0 1.0 5.0 36 82
- 1.222848 1 0 tcp 1040 ------- 0 1.0 5.0 50 96
r 1.222864 1 0 tcp 1040 ------- 0 1.0 5.0 37 83
+ 1.222864 0 5 tcp 1040 ------- 0 1.0 5.0 37 83
- 1.222864 0 5 tcp 1040 ------- 0 1.0 5.0 37 83
r 1.223696 1 0 tcp 1040 ------- 0 1.0 5.0 38 84
+ 1.223696 0 5 tcp 1040 ------- 0 1.0 5.0 38 84
- 1.223696 0 5 tcp 1040 ------- 0 1.0 5.0 38 84
r 1.224528 1 0 tcp 1040 ------- 0 1.0 5.0 39 85
+ 1.224528 0 5 tcp 1040 ------- 0 1.0 5.0 39 85
- 1.224528 0 5 tcp 1040 ------- 0 1.0 5.0 39 85
r 1.22536 1 0 tcp 1040 ------- 0 1.0 5.0 40 86
+ 1.22536 0 5 tcp 1040 ------- 0 1.0 5.0 40 86
- 1.22536 0 5 tcp 1040 ------- 0 1.0 5.0 40 86
r 1.226192 1 0 tcp 1040 ------- 0 1.0 5.0 41 87
+ 1.226192 0 5 tcp 1040 ------- 0 1.0 5.0 41 87
- 1.226192 0 5 tcp 1040 ------- 0 1.0 5.0 41 87
r 1.227024 1 0 tcp 1040 ------- 0 1.0 5.0 42 88
+ 1.227024 0 5 tcp 1040 ------- 0 1.0 5.0 42 88
- 1.227024 0 5 tcp 1040 ------- 0 1.0 5.0 42 88
r 1.227856 1 0 tcp 1040 ------- 0 1.0 5.0 43 89
+ 1.227856 0 5 tcp 1040 ------- 0 1.0 5.0 43 89
- 1.227856 0 5 tcp 1040 ------- 0 1.0 5.0 43 89
r 1.228688 1 0 tcp 1040 ------- 0 1.0 5.0 44 90
+ 1.228688 0 5 tcp 1040 ------- 0 1.0 5.0 44 90
- 1.228688 0 5 tcp 1040 ------- 0 1.0 5.0 44 90
r 1.228704 0 5 tcp 1040 ------- 0 1.0 5.0 31 77
+ 1.228704 5 0 ack 40 ------- 0 5.0 1.0 31 97
- 1.228704 5 0 ack 40 ------- 0 5.0 1.0 31 97
r 1.22952 1 0 tcp 1040 ------- 0 1.0 5.0 45 91
+ 1.22952 0 5 tcp 1040 ------- 0 1.0 5.0 45 91
- 1.22952 0 5 tcp 1040 ------- 0 1.0 5.0 45 91
r 1.229536 0 5 tcp 1040 ------- 0 1.0 5.0 32 78
+ 1.229536 5 0 ack 40 ------- 0 5.0 1.0 32 98
- 1.229536 5 0 ack 40 ------- 0 5.0 1.0 32 98
r 1.230352 1 0 tcp 1040 ------- 0 1.0 5.0 46 92
+ 1.230352 0 5 tcp 1040 ------- 0 1.0 5.0 46 92
- 1.230352 0 5 tcp 1040 ------- 0 1.0 5.0 46 92
r 1.230368 0 5 tcp 1040 ------- 0 1.0 5.0 33 79
+ 1.230368 5 0 ack 40 ------- 0 5.0 1.0 33 99
- 1.230368 5 0 ack 40 ------- 0 5.0 1.0 33 99
r 1.231184 1 0 tcp 1040 ------- 0 1.0 5.0 47 93
+ 1.231184 0 5 tcp 1040 ------- 0 1.0 5.0 47 93
- 1.231184 0 5 tcp 1040 ------- 0 1.0 5.0 47 93
r 1.2312 0 5 tcp 1040 ------- 0 1.0 5.0 34 80
+ 1.2312 5 0 ack 40 ------- 0 5.0 1.0 34 100
- 1.2312 5 0 ack 40 ------- 0 5.0 1.0 34 100
r 1.232016 1 0 tcp 1040 ------- 0 1.0 5.0 48 94
+ 1.232016 0 5 tcp 1040 ------- 0 1.0 5.0 48 94
- 1.232016 0 5 tcp 1040 ------- 0 1.0 5.0 48 94
r 1.232032 0 5 tcp 1040 ------- 0 1.0 5.0 35 81
+ 1.232032 5 0 ack 40 ------- 0 5.0 1.0 35 101
- 1.232032 5 0 ack 40 ------- 0 5.0 1.0 35 101
r 1.232848 1 0 tcp 1040 ------- 0 1.0 5.0 49 95
+ 1.232848 0 5 tcp 1040 ------- 0 1.0 5.0 49 95
- 1.232848 0 5 tcp 1040 ------- 0 1.0 5.0 49 95
r 1.232864 0 5 tcp 1040 ------- 0 1.0 5.0 36 82
+ 1.232864 5 0 ack 40 ------- 0 5.0 1.0 36 102
- 1.232864 5 0 ack 40 ------- 0 5.0 1.0 36 102
r 1.23368 1 0 tcp 1040 ------- 0 1.0 5.0 50 96
+ 1.23368 0 5 tcp 1040 ------- 0 1.0 5.0 50 96
- 1.23368 0 5 tcp 1040 ------- 0 1.0 5.0 50 96
r 1.233696 0 5 tcp 1040 ------- 0 1.0 5.0 37 83
+ 1.233696 5 0 ack 40 ------- 0 5.0 1.0 37 103
- 1.233696 5 0 ack 40 ------- 0 5.0 1.0 37 103
r 1.234528 0 5 tcp 1040 ------- 0 1.0 5.0 38 84
+ 1.234528 5 0 ack 40 ------- 0 5.0 1.0 38 104
- 1.234528 5 0 ack 40 ------- 0 5.0 1.0 38 104
r 1.23536 0 5 tcp 1040 ------- 0 1.0 5.0 39 85
+ 1.23536 5 0 ack 40 ------- 0 5.0 1.0 39 105
- 1.23536 5 0 ack 40 ------- 0 5.0 1.0 39 105
r 1.236192 0 5 tcp 1040 ------- 0 1.0 5.0 40 86
+ 1.236192 5 0 ack 40 ------- 0 5.0 1.0 40 106
- 1.236192 5 0 ack 40 ------- 0 5.0 1.0 40 106
r 1.237024 0 5 tcp 1040 ------- 0 1.0 5.0 41 87
+ 1.237024 5 0 ack 40 ------- 0 5.0 1.0 41 107
- 1.237024 5 0 ack 40 ------- 0 5.0 1.0 41 107
r 1.237856 0 5 tcp 1040 ------- 0 1.0 5.0 42 88
+ 1.237856 5 0 ack 40 ------- 0 5.0 1.0 42 108
- 1.237856 5 0 ack 40 ------- 0 5.0 1.0 42 108
r 1.238688 0 5 tcp 1040 ------- 0 1.0 5.0 43 89
+ 1.238688 5 0 ack 40 ------- 0 5.0 1.0 43 109
- 1.238688 5 0 ack 40 ------- 0 5.0 1.0 43 109
r 1.238736 5 0 ack 40 ------- 0 5.0 1.0 31 97
+ 1.238736 0 1 ack 40 ------- 0 5.0 1.0 31 97
- 1.238736 0 1 ack 40 ------- 0 5.0 1.0 31 97
r 1.23952 0 5 tcp 1040 ------- 0 1.0 5.0 44 90
+ 1.23952 5 0 ack 40 ------- 0 5.0 1.0 44 110
- 1.23952 5 0 ack 40 ------- 0 5.0 1.0 44 110
r 1.239568 5 0 ack 40 ------- 0 5.0 1.0 32 98
+ 1.239568 0 1 ack 40 ------- 0 5.0 1.0 32 98
- 1.239568 0 1 ack 40 ------- 0 5.0 1.0 32 98
r 1.240352 0 5 tcp 1040 ------- 0 1.0 5.0 45 91
+ 1.240352 5 0 ack 40 ------- 0 5.0 1.0 45 111
- 1.240352 5 0 ack 40 ------- 0 5.0 1.0 45 111
r 1.2404 5 0 ack 40 ------- 0 5.0 1.0 33 99
+ 1.2404 0 1 ack 40 ------- 0 5.0 1.0 33 99
- 1.2404 0 1 ack 40 ------- 0 5.0 1.0 33 99
r 1.241184 0 5 tcp 1040 ------- 0 1.0 5.0 46 92
+ 1.241184 5 0 ack 40 ------- 0 5.0 1.0 46 112
- 1.241184 5 0 ack 40 ------- 0 5.0 1.0 46 112
r 1.241232 5 0 ack 40 ------- 0 5.0 1.0 34 100
+ 1.241232 0 1 ack 40 ------- 0 5.0 1.0 34 100
- 1.241232 0 1 ack 40 ------- 0 5.0 1.0 34 100
r 1.242016 0 5 tcp 1040 ------- 0 1.0 5.0 47 93
+ 1.242016 5 0 ack 40 ------- 0 5.0 1.0 47 113
- 1.242016 5 0 ack 40 ------- 0 5.0 1.0 47 113
r 1.242064 5 0 ack 40 ------- 0 5.0 1.0 35 101
+ 1.242064 0 1 ack 40 ------- 0 5.0 1.0 35 101
- 1.242064 0 1 ack 40 ------- 0 5.0 1.0 35 101
r 1.242848 0 5 tcp 1040 ------- 0 1.0 5.0 48 94
+ 1.242848 5 0 ack 40 ------- 0 5.0 1.0 48 114
- 1.242848 5 0 ack 40 ------- 0 5.0 1.0 48 114
r 1.242896 5 0 ack 40 ------- 0 5.0 1.0 36 102
+ 1.242896 0 1 ack 40 ------- 0 5.0 1.0 36 102
- 1.242896 0 1 ack 40 ------- 0 5.0 1.0 36 102
r 1.24368 0 5 tcp 1040 ------- 0 1.0 5.0 49 95
+ 1.24368 5 0 ack 40 ------- 0 5.0 1.0 49 115
- 1.24368 5 0 ack 40 ------- 0 5.0 1.0 49 115
r 1.243728 5 0 ack 40 ------- 0 5.0 1.0 37 103
+ 1.243728 0 1 ack 40 ------- 0 5.0 1.0 37 103
- 1.243728 0 1 ack 40 ------- 0 5.0 1.0 37 103
r 1.244512 0 5 tcp 1040 ------- 0 1.0 5.0 50 96
+ 1.244512 5 0 ack 40 ------- 0 5.0 1.0 50 116
- 1.244512 5 0 ack 40 ------- 0 5.0 1.0 50 116
r 1.24456 5 0 ack 40 ------- 0 5.0 1.0 38 104
+ 1.24456 0 1 ack 40 ------- 0 5.0 1.0 38 104
- 1.24456 0 1 ack 40 ------- 0 5.0 1.0 38 104
r 1.245392 5 0 ack 40 ------- 0 5.0 1.0 39 105
+ 1.245392 0 1 ack 40 ------- 0 5.0 1.0 39 105
- 1.245392 0 1 ack 40 ------- 0 5.0 1.0 39 105
r 1.246224 5 0 ack 40 ------- 0 5.0 1.0 40 106
+ 1.246224 0 1 ack 40 ------- 0 5.0 1.0 40 106
- 1.246224 0 1 ack 40 ------- 0 5.0 1.0 40 106
r 1.247056 5 0 ack 40 ------- 0 5.0 1.0 41 107
+ 1.247056 0 1 ack 40 ------- 0 5.0 1.0 41 107
- 1.247056 0 1 ack 40 ------- 0 5.0 1.0 41 107
r 1.247888 5 0 ack 40 ------- 0 5.0 1.0 42 108
+ 1.247888 0 1 ack 40 ------- 0 5.0 1.0 42 108
- 1.247888 0 1 ack 40 ------- 0 5.0 1.0 42 108
r 1.24872 5 0 ack 40 ------- 0 5.0 1.0 43 109
+ 1.24872 0 1 ack 40 ------- 0 5.0 1.0 43 109
- 1.24872 0 1 ack 40 ------- 0 5.0 1.0 43 109
r 1.248768 0 1 ack 40 ------- 0 5.0 1.0 31 97
+ 1.248768 1 0 tcp 1040 ------- 0 1.0 5.0 51 117
- 1.248768 1 0 tcp 1040 ------- 0 1.0 5.0 51 117
r 1.249552 5 0 ack 40 ------- 0 5.0 1.0 44 110
+ 1.249552 0 1 ack 40 ------- 0 5.0 1.0 44 110
- 1.249552 0 1 ack 40 ------- 0 5.0 1.0 44 110
r 1.2496 0 1 ack 40 ------- 0 5.0 1.0 32 98
+ 1.2496 1 0 tcp 1040 ------- 0 1.0 5.0 52 118
- 1.2496 1 0 tcp 1040 ------- 0 1.0 5.0 52 118
r 1.250384 5 0 ack 40 ------- 0 5.0 1.0 45 111
+ 1.250384 0 1 ack 40 ------- 0 5.0 1.0 45 111
- 1.250384 0 1 ack 40 ------- 0 5.0 1.0 45 111
r 1.250432 0 1 ack 40 ------- 0 5.0 1.0 33 99
+ 1.250432 1 0 tcp 1040 ------- 0 1.0 5.0 53 119
- 1.250432 1 0 tcp 1040 ------- 0 1.0 5.0 53 119
r 1.251216 5 0 ack 40 ------- 0 5.0 1.0 46 112
+ 1.251216 0 1 ack 40 ------- 0 5.0 1.0 46 112
- 1.251216 0 1 ack 40 ------- 0 5.0 1.0 46 112
r 1.251264 0 1 ack 40 ------- 0 5.0 1.0 34 100
+ 1.251264 1 0 tcp 1040 ------- 0 1.0 5.0 54 120
- 1.251264 1 0 tcp 1040 ------- 0 1.0 5.0 54 120
r 1.252048 5 0 ack 40 ------- 0 5.0 1.0 47 113
+ 1.252048 0 1 ack 40 ------- 0 5.0 1.0 47 113