V -t * -v 1.0a5 -a 0
A -t * -n 1 -p 0 -o 0x7fffffff -c 30 -a 1
A -t * -h 1 -m 1073741823 -s 0
n -t * -a 4 -s 4 -S UP -v circle -c black -i black
n -t * -a 0 -s 0 -S UP -v circle -c black -i black
n -t * -a 5 -s 5 -S UP -v circle -c black -i black
n -t * -a 1 -s 1 -S UP -v circle -c black -i black
n -t * -a 2 -s 2 -S UP -v circle -c black -i black
n -t * -a 3 -s 3 -S UP -v circle -c black -i black
l -t * -s 0 -d 1 -S UP -r 10000000 -D 0.01 -c black
l -t * -s 0 -d 2 -S UP -r 10000000 -D 0.01 -c black
l -t * -s 0 -d 3 -S UP -r 10000000 -D 0.01 -c black
l -t * -s 0 -d 4 -S UP -r 10000000 -D 0.01 -c black
l -t * -s 0 -d 5 -S UP -r 10000000 -D 0.01 -c black
+ -t 0.000169788487334637 -s 0 -d 1 -p rtProtoDV -e 6 -c 0 -i 0 -a 0 -x {0.1 1.2 -1 ------- null}
- -t 0.000169788487334637 -s 0 -d 1 -p rtProtoDV -e 6 -c 0 -i 0 -a 0 -x {0.1 1.2 -1 ------- null}
h -t 0.000169788487334637 -s 0 -d 1 -p rtProtoDV -e 6 -c 0 -i 0 -a 0 -x {0.1 1.2 -1 ------- null}
+ -t 0.000169788487334637 -s 0 -d 2 -p rtProtoDV -e 6 -c 0 -i 1 -a 0 -x {0.1 2.1 -1 ------- null}
- -t 0.000169788487334637 -s 0 -d 2 -p rtProtoDV -e 6 -c 0 -i 1 -a 0 -x {0.1 2.1 -1 ------- null}
h -t 0.000169788487334637 -s 0 -d 2 -p rtProtoDV -e 6 -c 0 -i 1 -a 0 -x {0.1 2.1 -1 ------- null}
+ -t 0.000169788487334637 -s 0 -d 3 -p rtProtoDV -e 6 -c 0 -i 2 -a 0 -x {0.1 3.1 -1 ------- null}
- -t 0.000169788487334637 -s 0 -d 3 -p rtProtoDV -e 6 -c 0 -i 2 -a 0 -x {0.1 3.1 -1 ------- null}
h -t 0.000169788487334637 -s 0 -d 3 -p rtProtoDV -e 6 -c 0 -i 2 -a 0 -x {0.1 3.1 -1 ------- null}
+ -t 0.000169788487334637 -s 0 -d 4 -p rtProtoDV -e 6 -c 0 -i 3 -a 0 -x {0.1 4.1 -1 ------- null}
- -t 0.000169788487334637 -s 0 -d 4 -p rtProtoDV -e 6 -c 0 -i 3 -a 0 -x {0.1 4.1 -1 ------- null}
h -t 0.000169788487334637 -s 0 -d 4 -p rtProtoDV -e 6 -c 0 -i 3 -a 0 -x {0.1 4.1 -1 ------- null}
+ -t 0.000169788487334637 -s 0 -d 5 -p rtProtoDV -e 6 -c 0 -i 4 -a 0 -x {0.1 5.2 -1 ------- null}
- -t 0.000169788487334637 -s 0 -d 5 -p rtProtoDV -e 6 -c 0 -i 4 -a 0 -x {0.1 5.2 -1 ------- null}
h -t 0.000169788487334637 -s 0 -d 5 -p rtProtoDV -e 6 -c 0 -i 4 -a 0 -x {0.1 5.2 -1 ------- null}
+ -t 0.00710233021858257 -s 2 -d 0 -p rtProtoDV -e 6 -c 0 -i 5 -a 0 -x {2.1 0.1 -1 ------- null}
- -t 0.00710233021858257 -s 2 -d 0 -p rtProtoDV -e 6 -c 0 -i 5 -a 0 -x {2.1 0.1 -1 ------- null}
h -t 0.00710233021858257 -s 2 -d 0 -p rtProtoDV -e 6 -c 0 -i 5 -a 0 -x {2.1 0.1 -1 ------- null}
r -t 0.0101745884873346 -s 0 -d 1 -p rtProtoDV -e 6 -c 0 -i 0 -a 0 -x {0.1 1.2 -1 ------- null}
+ -t 0.0101745884873346 -s 1 -d 0 -p rtProtoDV -e 6 -c 0 -i 6 -a 0 -x {1.2 0.1 -1 ------- null}
- -t 0.0101745884873346 -s 1 -d 0 -p rtProtoDV -e 6 -c 0 -i 6 -a 0 -x {1.2 0.1 -1 ------- null}
h -t 0.0101745884873346 -s 1 -d 0 -p rtProtoDV -e 6 -c 0 -i 6 -a 0 -x {1.2 0.1 -1 ------- null}
r -t 0.0101745884873346 -s 0 -d 2 -p rtProtoDV -e 6 -c 0 -i 1 -a 0 -x {0.1 2.1 -1 ------- null}
+ -t 0.0101745884873346 -s 2 -d 0 -p rtProtoDV -e 6 -c 0 -i 7 -a 0 -x {2.1 0.1 -1 ------- null}
- -t 0.0101745884873346 -s 2 -d 0 -p rtProtoDV -e 6 -c 0 -i 7 -a 0 -x {2.1 0.1 -1 ------- null}
h -t 0.0101745884873346 -s 2 -d 0 -p rtProtoDV -e 6 -c 0 -i 7 -a 0 -x {2.1 0.1 -1 ------- null}
r -t 0.0101745884873346 -s 0 -d 3 -p rtProtoDV -e 6 -c 0 -i 2 -a 0 -x {0.1 3.1 -1 ------- null}
+ -t 0.0101745884873346 -s 3 -d 0 -p rtProtoDV -e 6 -c 0 -i 8 -a 0 -x {3.1 0.1 -1 ------- null}
- -t 0.0101745884873346 -s 3 -d 0 -p rtProtoDV -e 6 -c 0 -i 8 -a 0 -x {3.1 0.1 -1 ------- null}
h -t 0.0101745884873346 -s 3 -d 0 -p rtProtoDV -e 6 -c 0 -i 8 -a 0 -x {3.1 0.1 -1 ------- null}
r -t 0.0101745884873346 -s 0 -d 4 -p rtProtoDV -e 6 -c 0 -i 3 -a 0 -x {0.1 4.1 -1 ------- null}
+ -t 0.0101745884873346 -s 4 -d 0 -p rtProtoDV -e 6 -c 0 -i 9 -a 0 -x {4.1 0.1 -1 ------- null}
- -t 0.0101745884873346 -s 4 -d 0 -p rtProtoDV -e 6 -c 0 -i 9 -a 0 -x {4.1 0.1 -1 ------- null}
h -t 0.0101745884873346 -s 4 -d 0 -p rtProtoDV -e 6 -c 0 -i 9 -a 0 -x {4.1 0.1 -1 ------- null}
r -t 0.0101745884873346 -s 0 -d 5 -p rtProtoDV -e 6 -c 0 -i 4 -a 0 -x {0.1 5.2 -1 ------- null}
+ -t 0.0101745884873346 -s 5 -d 0 -p rtProtoDV -e 6 -c 0 -i 10 -a 0 -x {5.2 0.1 -1 ------- null}
- -t 0.0101745884873346 -s 5 -d 0 -p rtProtoDV -e 6 -c 0 -i 10 -a 0 -x {5.2 0.1 -1 ------- null}
h -t 0.0101745884873346 -s 5 -d 0 -p rtProtoDV -e 6 -c 0 -i 10 -a 0 -x {5.2 0.1 -1 ------- null}
r -t 0.0171071302185826 -s 2 -d 0 -p rtProtoDV -e 6 -c 0 -i 5 -a 0 -x {2.1 0.1 -1 ------- null}
r -t 0.0201793884873346 -s 1 -d 0 -p rtProtoDV -e 6 -c 0 -i 6 -a 0 -x {1.2 0.1 -1 ------- null}
r -t 0.0201793884873346 -s 2 -d 0 -p rtProtoDV -e 6 -c 0 -i 7 -a 0 -x {2.1 0.1 -1 ------- null}
r -t 0.0201793884873346 -s 3 -d 0 -p rtProtoDV -e 6 -c 0 -i 8 -a 0 -x {3.1 0.1 -1 ------- null}
r -t 0.0201793884873346 -s 4 -d 0 -p rtProtoDV -e 6 -c 0 -i 9 -a 0 -x {4.1 0.1 -1 ------- null}
r -t 0.0201793884873346 -s 5 -d 0 -p rtProtoDV -e 6 -c 0 -i 10 -a 0 -x {5.2 0.1 -1 ------- null}
+ -t 0.04406133552271 -s 3 -d 0 -p rtProtoDV -e 6 -c 0 -i 11 -a 0 -x {3.1 0.1 -1 ------- null}
- -t 0.04406133552271 -s 3 -d 0 -p rtProtoDV -e 6 -c 0 -i 11 -a 0 -x {3.1 0.1 -1 ------- null}
h -t 0.04406133552271 -s 3 -d 0 -p rtProtoDV -e 6 -c 0 -i 11 -a 0 -x {3.1 0.1 -1 ------- null}
r -t 0.05406613552271 -s 3 -d 0 -p rtProtoDV -e 6 -c 0 -i 11 -a 0 -x {3.1 0.1 -1 ------- null}
+ -t 0.22058669092161 -s 4 -d 0 -p rtProtoDV -e 6 -c 0 -i 12 -a 0 -x {4.1 0.1 -1 ------- null}
- -t 0.22058669092161 -s 4 -d 0 -p rtProtoDV -e 6 -c 0 -i 12 -a 0 -x {4.1 0.1 -1 ------- null}
h -t 0.22058669092161 -s 4 -d 0 -p rtProtoDV -e 6 -c 0 -i 12 -a 0 -x {4.1 0.1 -1 ------- null}
r -t 0.23059149092161 -s 4 -d 0 -p rtProtoDV -e 6 -c 0 -i 12 -a 0 -x {4.1 0.1 -1 ------- null}
+ -t 0.277940357931862 -s 1 -d 0 -p rtProtoDV -e 6 -c 0 -i 13 -a 0 -x {1.2 0.1 -1 ------- null}
- -t 0.277940357931862 -s 1 -d 0 -p rtProtoDV -e 6 -c 0 -i 13 -a 0 -x {1.2 0.1 -1 ------- null}
h -t 0.277940357931862 -s 1 -d 0 -p rtProtoDV -e 6 -c 0 -i 13 -a 0 -x {1.2 0.1 -1 ------- null}
r -t 0.287945157931862 -s 1 -d 0 -p rtProtoDV -e 6 -c 0 -i 13 -a 0 -x {1.2 0.1 -1 ------- null}
+ -t 0.399577726796073 -s 5 -d 0 -p rtProtoDV -e 6 -c 0 -i 14 -a 0 -x {5.2 0.1 -1 ------- null}
- -t 0.399577726796073 -s 5 -d 0 -p rtProtoDV -e 6 -c 0 -i 14 -a 0 -x {5.2 0.1 -1 ------- null}
h -t 0.399577726796073 -s 5 -d 0 -p rtProtoDV -e 6 -c 0 -i 14 -a 0 -x {5.2 0.1 -1 ------- null}
r -t 0.409582526796073 -s 5 -d 0 -p rtProtoDV -e 6 -c 0 -i 14 -a 0 -x {5.2 0.1 -1 ------- null}
+ -t 1 -s 1 -d 0 -p tcp -e 40 -c 0 -i 15 -a 0 -x {1.0 5.0 0 ------- null}
- -t 1 -s 1 -d 0 -p tcp -e 40 -c 0 -i 15 -a 0 -x {1.0 5.0 0 ------- null}
h -t 1 -s 1 -d 0 -p tcp -e 40 -c 0 -i 15 -a 0 -x {1.0 5.0 -1 ------- null}
r -t 1.010032 -s 1 -d 0 -p tcp -e 40 -c 0 -i 15 -a 0 -x {1.0 5.0 0 ------- null}
+ -t 1.010032 -s 0 -d 5 -p tcp -e 40 -c 0 -i 15 -a 0 -x {1.0 5.0 0 ------- null}
- -t 1.010032 -s 0 -d 5 -p tcp -e 40 -c 0 -i 15 -a 0 -x {1.0 5.0 0 ------- null}
h -t 1.010032 -s 0 -d 5 -p tcp -e 40 -c 0 -i 15 -a 0 -x {1.0 5.0 -1 ------- null}
r -t 1.020064 -s 0 -d 5 -p tcp -e 40 -c 0 -i 15 -a 0 -x {1.0 5.0 0 ------- null}
+ -t 1.020064 -s 5 -d 0 -p ack -e 40 -c 0 -i 16 -a 0 -x {5.0 1.0 0 ------- null}
- -t 1.020064 -s 5 -d 0 -p ack -e 40 -c 0 -i 16 -a 0 -x {5.0 1.0 0 ------- null}
h -t 1.020064 -s 5 -d 0 -p ack -e 40 -c 0 -i 16 -a 0 -x {5.0 1.0 -1 ------- null}
r -t 1.030096 -s 5 -d 0 -p ack -e 40 -c 0 -i 16 -a 0 -x {5.0 1.0 0 ------- null}
+ -t 1.030096 -s 0 -d 1 -p ack -e 40 -c 0 -i 16 -a 0 -x {5.0 1.0 0 ------- null}
- -t 1.030096 -s 0 -d 1 -p ack -e 40 -c 0 -i 16 -a 0 -x {5.0 1.0 0 ------- null}
h -t 1.030096 -s 0 -d 1 -p ack -e 40 -c 0 -i 16 -a 0 -x {5.0 1.0 -1 ------- null}
r -t 1.040128 -s 0 -d 1 -p ack -e 40 -c 0 -i 16 -a 0 -x {5.0 1.0 0 ------- null}
+ -t 1.040128 -s 1 -d 0 -p tcp -e 1040 -c 0 -i 17 -a 0 -x {1.0 5.0 1 ------- null}
- -t 1.040128 -s 1 -d 0 -p tcp -e 1040 -c 0 -i 17 -a 0 -x {1.0 5.0 1 ------- null}
h -t 1.040128 -s 1 -d 0 -p tcp -e 1040 -c 0 -i 17 -a 0 -x {1.0 5.0 -1 ------- null}
+ -t 1.040128 -s 1 -d 0 -p tcp -e 1040 -c 0 -i 18 -a 0 -x {1.0 5.0 2 ------- null}
- -t 1.04096 -s 1 -d 0 -p tcp -e 1040 -c 0 -i 18 -a 0 -x {1.0 5.0 2 ------- null}
h -t 1.04096 -s 1 -d 0 -p tcp -e 1040 -c 0 -i 18 -a 0 -x {1.0 5.0 -1 ------- null}
r -t 1.05096 -s 1 -d 0 -p tcp -e 1040 -c 0 -i 17 -a 0 -x {1.0 5.0 1 ------- null}
+ -t 1.05096 -s 0 -d 5 -p tcp -e 1040 -c 0 -i 17 -a 0 -x {1.0 5.0 1 ------- null}
- -t 1.05096 -s 0 -d 5 -p tcp -e 1040 -c 0 -i 17 -a 0 -x {1.0 5.0 1 ------- null}
h -t 1.05096 -s 0 -d 5 -p tcp -e 1040 -c 0 -i 17 -a 0 -x {1.0 5.0 -1 ------- null}
r -t 1.051792 -s 1 -d 0 -p tcp -e 1040 -c 0 -i 18 -a 0 -x {1.0 5.0 2 ------- null}
+ -t 1.051792 -s 0 -d 5 -p tcp -e 1040 -c 0 -i 18 -a 0 -x {1.0 5.0 2 ------- null}
- -t 1.051792 -s 0 -d 5 -p tcp -e 1040 -c 0 -i 18 -a 0 -x {1.0 5.0 2 ------- null}
h -t 1.051792 -s 0 -d 5 -p tcp -e 1040 -c 0 -i 18 -a 0 -x {1.0 5.0 -1 ------- null}
r -t 1.061792 -s 0 -d 5 -p tcp -e 1040 -c 0 -i 17 -a 0 -x {1.0 5.0 1 ------- null}
+ -t 1.061792 -s 5 -d 0 -p ack -e 40 -c 0 -i 19 -a 0 -x {5.0 1.0 1 ------- null}
- -t 1.061792 -s 5 -d 0 -p ack -e 40 -c 0 -i 19 -a 0 -x {5.0 1.0 1 ------- null}
h -t 1.061792 -s 5 -d 0 -p ack -e 40 -c 0 -i 19 -a 0 -x {5.0 1.0 -1 ------- null}
r -t 1.062624 -s 0 -d 5 -p tcp -e 1040 -c 0 -i 18 -a 0 -x {1.0 5.0 2 ------- null}
+ -t 1.062624 -s 5 -d 0 -p ack -e 40 -c 0 -i 20 -a 0 -x {5.0 1.0 2 ------- null}
- -t 1.062624 -s 5 -d 0 -p ack -e 40 -c 0 -i 20 -a 0 -x {5.0 1.0 2 ------- null}
h -t 1.062624 -s 5 -d 0 -p ack -e 40 -c 0 -i 20 -a 0 -x {5.0 1.0 -1 ------- null}
r -t 1.071824 -s 5 -d 0 -p ack -e 40 -c 0 -i 19 -a 0 -x {5.0 1.0 1 ------- null}
+ -t 1.071824 -s 0 -d 1 -p ack -e 40 -c 0 -i 19 -a 0 -x {5.0 1.0 1 ------- null}
- -t 1.071824 -s 0 -d 1 -p ack -e 40 -c 0 -i 19 -a 0 -x {5.0 1.0 1 ------- null}
h -t 1.071824 -s 0 -d 1 -p ack -e 40 -c 0 -i 19 -a 0 -x {5.0 1.0 -1 ------- null}
r -t 1.072656 -s 5 -d 0 -p ack -e 40 -c 0 -i 20 -a 0 -x {5.0 1.0 2 ------- null}
+ -t 1.072656 -s 0 -d 1 -p ack -e 40 -c 0 -i 20 -a 0 -x {5.0 1.0 2 ------- null}
- -t 1.072656 -s 0 -d 1 -p ack -e 40 -c 0 -i 20 -a 0 -x {5.0 1.0 2 ------- null}
h -t 1.072656 -s 0 -d 1 -p ack -e 40 -c 0 -i 20 -a 0 -x {5.0 1.0 -1 ------- null}
r -t 1.081856 -s 0 -d 1 -p ack -e 40 -c 0 -i 19 -a 0 -x {5.0 1.0 1 ------- null}
+ -t 1.081856 -s 1 -d 0 -p tcp -e 1040 -c 0 -i 21 -a 0 -x {1.0 5.0 3 ------- null}
- -t 1.081856 -s 1 -d 0 -p tcp -e 1040 -c 0 -i 21 -a 0 -x {1.0 5.0 3 ------- null}
h -t 1.081856 -s 1 -d 0 -p tcp -e 1040 -c 0 -i 21 -a 0 -x {1.0 5.0 -1 ------- null}
+ -t 1.081856 -s 1 -d 0 -p tcp -e 1040 -c 0 -i 22 -a 0 -x {1.0 5.0 4 ------- null}
r -t 1.082688 -s 0 -d 1 -p ack -e 40 -c 0 -i 20 -a 0 -x {5.0 1.0 2 ------- null}
+ -t 1.082688 -s 1 -d 0 -p tcp -e 1040 -c 0 -i 23 -a 0 -x {1.0 5.0 5 ------- null}
+ -t 1.082688 -s 1 -d 0 -p tcp -e 1040 -c 0 -i 24 -a 0 -x {1.0 5.0 6 ------- null}
- -t 1.082688 -s 1 -d 0 -p tcp -e 1040 -c 0 -i 22 -a 0 -x {1.0 5.0 4 ------- null}
h -t 1.082688 -s 1 -d 0 -p tcp -e 1040 -c 0 -i 22 -a 0 -x {1.0 5.0 -1 ------- null}
- -t 1.08352 -s 1 -d 0 -p tcp -e 1040 -c 0 -i 23 -a 0 -x {1.0 5.0 5 ------- null}
h -t 1.08352 -s 1 -d 0 -p tcp -e 1040 -c 0 -i 23 -a 0 -x {1.0 5.0 -1 ------- null}
- -t 1.084352 -s 1 -d 0 -p tcp -e 1040 -c 0 -i 24 -a 0 -x {1.0 5.0 6 ------- null}
h -t 1.084352 -s 1 -d 0 -p tcp -e 1040 -c 0 -i 24 -a 0 -x {1.0 5.0 -1 ------- null}
r -t 1.092688 -s 1 -d 0 -p tcp -e 1040 -c 0 -i 21 -a 0 -x {1.0 5.0 3 ------- null}
+ -t 1.092688 -s 0 -d 5 -p tcp -e 1040 -c 0 -i 21 -a 0 -x {1.0 5.0 3 ------- null}
- -t 1.092688 -s 0 -d 5 -p tcp -e 1040 -c 0 -i 21 -a 0 -x {1.0 5.0 3 ------- null}
h -t 1.092688 -s 0 -d 5 -p tcp -e 1040 -c 0 -i 21 -a 0 -x {1.0 5.0 -1 ------- null}
r -t 1.09352 -s 1 -d 0 -p tcp -e 1040 -c 0 -i 22 -a 0 -x {1.0 5.0 4 ------- null}
+ -t 1.09352 -s 0 -d 5 -p tcp -e 1040 -c 0 -i 22 -a 0 -x {1.0 5.0 4 ------- null}
- -t 1.09352 -s 0 -d 5 -p tcp -e 1040 -c 0 -i 22 -a 0 -x {1.0 5.0 4 ------- null}
h -t 1.09352 -s 0 -d 5 -p tcp -e 1040 -c 0 -i 22 -a 0 -x {1.0 5.0 -1 ------- null}
r -t 1.094352 -s 1 -d 0 -p tcp -e 1040 -c 0 -i 23 -a 0 -x {1.0 5.0 5 ------- null}
+ -t 1.094352 -s 0 -d 5 -p tcp -e 1040 -c 0 -i 23 -a 0 -x {1.0 5.0 5 ------- null}
- -t 1.094352 -s 0 -d 5 -p tcp -e 1040 -c 0 -i 23 -a 0 -x {1.0 5.0 5 ------- null}
h -t 1.094352 -s 0 -d 5 -p tcp -e 1040 -c 0 -i 23 -a 0 -x {1.0 5.0 -1 ------- null}
r -t 1.095184 -s 1 -d 0 -p tcp -e 1040 -c 0 -i 24 -a 0 -x {1.0 5.0 6 ------- null}
+ -t 1.095184 -s 0 -d 5 -p tcp -e 1040 -c 0 -i 24 -a 0 -x {1.0 5.0 6 ------- null}
- -t 1.095184 -s 0 -d 5 -p tcp -e 1040 -c 0 -i 24 -a 0 -x {1.0 5.0 6 ------- null}
h -t 1.095184 -s 0 -d 5 -p tcp -e 1040 -c 0 -i 24 -a 0 -x {1.0 5.0 -1 ------- null}
r -t 1.10352 -s 0 -d 5 -p tcp -e 1040 -c 0 -i 21 -a 0 -x {1.0 5.0 3 ------- null}
+ -t 1.10352 -s 5 -d 0 -p ack -e 40 -c 0 -i 25 -a 0 -x {5.0 1.0 3 ------- null}
- -t 1.10352 -s 5 -d 0 -p ack -e 40 -c 0 -i 25 -a 0 -x {5.0 1.0 3 ------- null}
h -t 1.10352 -s 5 -d 0 -p ack -e 40 -c 0 -i 25 -a 0 -x {5.0 1.0 -1 ------- null}
r -t 1.104352 -s 0 -d 5 -p tcp -e 1040 -c 0 -i 22 -a 0 -x {1.0 5.0 4 ------- null}
+ -t 1.104352 -s 5 -d 0 -p ack -e 40 -c 0 -i 26 -a 0 -x {5.0 1.0 4 ------- null}
- -t 1.104352 -s 5 -d 0 -p ack -e 40 -c 0 -i 26 -a 0 -x {5.0 1.0 4 ------- null}
h -t 1.104352 -s 5 -d 0 -p ack -e 40 -c 0 -i 26 -a 0 -x {5.0 1.0 -1 ------- null}
r -t 1.105184 -s 0 -d 5 -p tcp -e 1040 -c 0 -i 23 -a 0 -x {1.0 5.0 5 ------- null}
+ -t 1.105184 -s 5 -d 0 -p ack -e 40 -c 0 -i 27 -a 0 -x {5.0 1.0 5 ------- null}
- -t 1.105184 -s 5 -d 0 -p ack -e 40 -c 0 -i 27 -a 0 -x {5.0 1.0 5 ------- null}
h -t 1.105184 -s 5 -d 0 -p ack -e 40 -c 0 -i 27 -a 0 -x {5.0 1.0 -1 ------- null}
r -t 1.106016 -s 0 -d 5 -p tcp -e 1040 -c 0 -i 24 -a 0 -x {1.0 5.0 6 ------- null}
+ -t 1.106016 -s 5 -d 0 -p ack -e 40 -c 0 -i 28 -a 0 -x {5.0 1.0 6 ------- null}
- -t 1.106016 -s 5 -d 0 -p ack -e 40 -c 0 -i 28 -a 0 -x {5.0 1.0 6 ------- null}
h -t 1.106016 -s 5 -d 0 -p ack -e 40 -c 0 -i 28 -a 0 -x {5.0 1.0 -1 ------- null}
r -t 1.113552 -s 5 -d 0 -p ack -e 40 -c 0 -i 25 -a 0 -x {5.0 1.0 3 ------- null}
+ -t 1.113552 -s 0 -d 1 -p ack -e 40 -c 0 -i 25 -a 0 -x {5.0 1.0 3 ------- null}
- -t 1.113552 -s 0 -d 1 -p ack -e 40 -c 0 -i 25 -a 0 -x {5.0 1.0 3 ------- null}
h -t 1.113552 -s 0 -d 1 -p ack -e 40 -c 0 -i 25 -a 0 -x {5.0 1.0 -1 ------- null}
r -t 1.114384 -s 5 -d 0 -p ack -e 40 -c 0 -i 26 -a 0 -x {5.0 1.0 4 ------- null}
+ -t 1.114384 -s 0 -d 1 -p ack -e 40 -c 0 -i 26 -a 0 -x {5.0 1.0 4 ------- null}
- -t 1.114384 -s 0 -d 1 -p ack -e 40 -c 0 -i 26 -a 0 -x {5.0 1.0 4 ------- null}
h -t 1.114384 -s 0 -d 1 -p ack -e 40 -c 0 -i 26 -a 0 -x {5.0 1.0 -1 ------- null}
r -t 1.115216 -s 5 -d 0 -p ack -e 40 -c 0 -i 27 -a 0 -x {5.0 1.0 5 ------- null}
+ -t 1.115216 -s 0 -d 1 -p ack -e 40 -c 0 -i 27 -a 0 -x {5.0 1.0 5 ------- null}
- -t 1.115216 -s 0 -d 1 -p ack -e 40 -c 0 -i 27 -a 0 -x {5.0 1.0 5 ------- null}
h -t 1.115216 -s 0 -d 1 -p ack -e 40 -c 0 -i 27 -a 0 -x {5.0 1.0 -1 ------- null}
r -t 1.116048 -s 5 -d 0 -p ack -e 40 -c 0 -i 28 -a 0 -x {5.0 1.0 6 ------- null}
+ -t 1.116048 -s 0 -d 1 -p ack -e 40 -c 0 -i 28 -a 0 -x {5.0 1.0 6 ------- null}
- -t 1.116048 -s 0 -d 1 -p ack -e 40 -c 0 -i 28 -a 0 -x {5.0 1.0 6 ------- null}
h -t 1.116048 -s 0 -d 1 -p ack -e 40 -c 0 -i 28 -a 0 -x {5.0 1.0 -1 ------- null}
r -t 1.123584 -s 0 -d 1 -p ack -e 40 -c 0 -i 25 -a 0 -x {5.0 1.0 3 ------- null}
+ -t 1.123584 -s 1 -d 0 -p tcp -e 1040 -c 0 -i 29 -a 0 -x {1.0 5.0 7 ------- null}
- -t 1.123584 -s 1 -d 0 -p tcp -e 1040 -c 0 -i 29 -a 0 -x {1.0 5.0 7 ------- null}
h -t 1.123584 -s 1 -d 0 -p tcp -e 1040 -c 0 -i 29 -a 0 -x {1.0 5.0 -1 ------- null}
+ -t 1.123584 -s 1 -d 0 -p tcp -e 1040 -c 0 -i 30 -a 0 -x {1.0 5.0 8 ------- null}
r -t 1.124416 -s 0 -d 1 -p ack -e 40 -c 0 -i 26 -a 0 -x {5.0 1.0 4 ------- null}
+ -t 1.124416 -s 1 -d 0 -p tcp -e 1040 -c 0 -i 31 -a 0 -x {1.0 5.0 9 ------- null}
+ -t 1.124416 -s 1 -d 0 -p tcp -e 1040 -c 0 -i 32 -a 0 -x {1.0 5.0 10 ------- null}
- -t 1.124416 -s 1 -d 0 -p tcp -e 1040 -c 0 -i 30 -a 0 -x {1.0 5.0 8 ------- null}
h -t 1.124416 -s 1 -d 0 -p tcp -e 1040 -c 0 -i 30 -a 0 -x {1.0 5.0 -1 ------- null}
r -t 1.125248 -s 0 -d 1 -p ack -e 40 -c 0 -i 27 -a 0 -x {5.0 1.0 5 ------- null}
+ -t 1.125248 -s 1 -d 0 -p tcp -e 1040 -c 0 -i 33 -a 0 -x {1.0 5.0 11 ------- null}
+ -t 1.125248 -s 1 -d 0 -p tcp -e 1040 -c 0 -i 34 -a 0 -x {1.0 5.0 12 ------- null}
- -t 1.125248 -s 1 -d 0 -p tcp -e 1040 -c 0 -i 31 -a 0 -x {1.0 5.0 9 ------- null}
h -t 1.125248 -s 1 -d 0 -p tcp -e 1040 -c 0 -i 31 -a 0 -x {1.0 5.0 -1 ------- null}
r -t 1.12608 -s 0 -d 1 -p ack -e 40 -c 0 -i 28 -a 0 -x {5.0 1.0 6 ------- null}
+ -t 1.12608 -s 1 -d 0 -p tcp -e 1040 -c 0 -i 35 -a 0 -x {1.0 5.0 13 ------- null}
+ -t 1.12608 -s 1 -d 0 -p tcp -e 1040 -c 0 -i 36 -a 0 -x {1.0 5.0 14 ------- null}
- -t 1.12608 -s 1 -d 0 -p tcp -e 1040 -c 0 -i 32 -a 0 -x {1.0 5.0 10 ------- null}
h -t 1.12608 -s 1 -d 0 -p tcp -e 1040 -c 0 -i 32 -a 0 -x {1.0 5.0 -1 ------- null}
- -t 1.126912 -s 1 -d 0 -p tcp -e 1040 -c 0 -i 33 -a 0 -x {1.0 5.0 11 ------- null}
h -t 1.126912 -s 1 -d 0 -p tcp -e 1040 -c 0 -i 33 -a 0 -x {1.0 5.0 -1 ------- null}
- -t 1.127744 -s 1 -d 0 -p tcp -e 1040 -c 0 -i 34 -a 0 -x {1.0 5.0 12 ------- null}
h -t 1.127744 -s 1 -d 0 -p tcp -e 1040 -c 0 -i 34 -a 0 -x {1.0 5.0 -1 ------- null}
- -t 1.128576 -s 1 -d 0 -p tcp -e 1040 -c 0 -i 35 -a 0 -x {1.0 5.0 13 ------- null}
h -t 1.128576 -s 1 -d 0 -p tcp -e 1040 -c 0 -i 35 -a 0 -x {1.0 5.0 -1 ------- null}
- -t 1.129408 -s 1 -d 0 -p tcp -e 1040 -c 0 -i 36 -a 0 -x {1.0 5.0 14 ------- null}
h -t 1.129408 -s 1 -d 0 -p tcp -e 1040 -c 0 -i 36 -a 0 -x {1.0 5.0 -1 ------- null}
r -t 1.134416 -s 1 -d 0 -p tcp -e 1040 -c 0 -i 29 -a 0 -x {1.0 5.0 7 ------- null}
+ -t 1.134416 -s 0 -d 5 -p tcp -e 1040 -c 0 -i 29 -a 0 -x {1.0 5.0 7 ------- null}
- -t 1.134416 -s 0 -d 5 -p tcp -e 1040 -c 0 -i 29 -a 0 -x {1.0 5.0 7 ------- null}
h -t 1.134416 -s 0 -d 5 -p tcp -e 1040 -c 0 -i 29 -a 0 -x {1.0 5.0 -1 ------- null}
r -t 1.135248 -s 1 -d 0 -p tcp -e 1040 -c 0 -i 30 -a 0 -x {1.0 5.0 8 ------- null}
+ -t 1.135248 -s 0 -d 5 -p tcp -e 1040 -c 0 -i 30 -a 0 -x {1.0 5.0 8 ------- null}
- -t 1.135248 -s 0 -d 5 -p tcp -e 1040 -c 0 -i 30 -a 0 -x {1.0 5.0 8 ------- null}
h -t 1.135248 -s 0 -d 5 -p tcp -e 1040 -c 0 -i 30 -a 0 -x {1.0 5.0 -1 ------- null}
r -t 1.13608 -s 1 -d 0 -p tcp -e 1040 -c 0 -i 31 -a 0 -x {1.0 5.0 9 ------- null}
+ -t 1.13608 -s 0 -d 5 -p tcp -e 1040 -c 0 -i 31 -a 0 -x {1.0 5.0 9 ------- null}
- -t 1.13608 -s 0 -d 5 -p tcp -e 1040 -c 0 -i 31 -a 0 -x {1.0 5.0 9 ------- null}
h -t 1.13608 -s 0 -d 5 -p tcp -e 1040 -c 0 -i 31 -a 0 -x {1.0 5.0 -1 ------- null}
r -t 1.136912 -s 1 -d 0 -p tcp -e 1040 -c 0 -i 32 -a 0 -x {1.0 5.0 10 ------- null}
+ -t 1.136912 -s 0 -d 5 -p tcp -e 1040 -c 0 -i 32 -a 0 -x {1.0 5.0 10 ------- null}
- -t 1.136912 -s 0 -d 5 -p tcp -e 1040 -c 0 -i 32 -a 0 -x {1.0 5.0 10 ------- null}
h -t 1.136912 -s 0 -d 5 -p tcp -e 1040 -c 0 -i 32 -a 0 -x {1.0 5.0 -1 ------- null}
r -t 1.137744 -s 1 -d 0 -p tcp -e 1040 -c 0 -i 33 -a 0 -x {1.0 5.0 11 ------- null}
+ -t 1.137744 -s 0 -d 5 -p tcp -e 1040 -c 0 -i 33 -a 0 -x {1.0 5.0 11 ------- null}
- -t 1.137744 -s 0 -d 5 -p tcp -e 1040 -c 0 -i 33 -a 0 -x {1.0 5.0 11 ------- null}
h -t 1.137744 -s 0 -d 5 -p tcp -e 1040 -c 0 -i 33 -a 0 -x {1.0 5.0 -1 ------- null}
r -t 1.138576 -s 1 -d 0 -p tcp -e 1040 -c 0 -i 34 -a 0 -x {1.0 5.0 12 ------- null}
+ -t 1.138576 -s 0 -d 5 -p tcp -e 1040 -c 0 -i 34 -a 0 -x {1.0 5.0 12 ------- null}
- -t 1.138576 -s 0 -d 5 -p tcp -e 1040 -c 0 -i 34 -a 0 -x {1.0 5.0 12 ------- null}
h -t 1.138576 -s 0 -d 5 -p tcp -e 1040 -c 0 -i 34 -a 0 -x {1.0 5.0 -1 ------- null}
r -t 1.139408 -s 1 -d 0 -p tcp -e 1040 -c 0 -i 35 -a 0 -x {1.0 5.0 13 ------- null}
+ -t 1.139408 -s 0 -d 5 -p tcp -e 1040 -c 0 -i 35 -a 0 -x {1.0 5.0 13 ------- null}
- -t 1.139408 -s 0 -d 5 -p tcp -e 1040 -c 0 -i 35 -a 0 -x {1.0 5.0 13 ------- null}
h -t 1.139408 -s 0 -d 5 -p tcp -e 1040 -c 0 -i 35 -a 0 -x {1.0 5.0 -1 ------- null}
r -t 1.14024 -s 1 -d 0 -p tcp -e 1040 -c 0 -i 36 -a 0 -x {1.0 5.0 14 ------- null}
+ -t 1.14024 -s 0 -d 5 -p tcp -e 1040 -c 0 -i 36 -a 0 -x {1.0 5.0 14 ------- null}
- -t 1.14024 -s 0 -d 5 -p tcp -e 1040 -c 0 -i 36 -a 0 -x {1.0 5.0 14 ------- null}
h -t 1.14024 -s 0 -d 5 -p tcp -e 1040 -c 0 -i 36 -a 0 -x {1.0 5.0 -1 ------- null}
r -t 1.145248 -s 0 -d 5 -p tcp -e 1040 -c 0 -i 29 -a 0 -x {1.0 5.0 7 ------- null}
+ -t 1.145248 -s 5 -d 0 -p ack -e 40 -c 0 -i 37 -a 0 -x {5.0 1.0 7 ------- null}
- -t 1.145248 -s 5 -d 0 -p ack -e 40 -c 0 -i 37 -a 0 -x {5.0 1.0 7 ------- null}
h -t 1.145248 -s 5 -d 0 -p ack -e 40 -c 0 -i 37 -a 0 -x {5.0 1.0 -1 ------- null}
r -t 1.14608 -s 0 -d 5 -p tcp -e 1040 -c 0 -i 30 -a 0 -x {1.0 5.0 8 ------- null}
+ -t 1.14608 -s 5 -d 0 -p ack -e 40 -c 0 -i 38 -a 0 -x {5.0 1.0 8 ------- null}
- -t 1.14608 -s 5 -d 0 -p ack -e 40 -c 0 -i 38 -a 0 -x {5.0 1.0 8 ------- null}
h -t 1.14608 -s 5 -d 0 -p ack -e 40 -c 0 -i 38 -a 0 -x {5.0 1.0 -1 ------- null}
r -t 1.146912 -s 0 -d 5 -p tcp -e 1040 -c 0 -i 31 -a 0 -x {1.0 5.0 9 ------- null}
+ -t 1.146912 -s 5 -d 0 -p ack -e 40 -c 0 -i 39 -a 0 -x {5.0 1.0 9 ------- null}
- -t 1.146912 -s 5 -d 0 -p ack -e 40 -c 0 -i 39 -a 0 -x {5.0 1.0 9 ------- null}
h -t 1.146912 -s 5 -d 0 -p ack -e 40 -c 0 -i 39 -a 0 -x {5.0 1.0 -1 ------- null}
r -t 1.147744 -s 0 -d 5 -p tcp -e 1040 -c 0 -i 32 -a 0 -x {1.0 5.0 10 ------- null}
+ -t 1.147744 -s 5 -d 0 -p ack -e 40 -c 0 -i 40 -a 0 -x {5.0 1.0 10 ------- null}
- -t 1.147744 -s 5 -d 0 -p ack -e 40 -c 0 -i 40 -a 0 -x {5.0 1.0 10 ------- null}
h -t 1.147744 -s 5 -d 0 -p ack -e 40 -c 0 -i 40 -a 0 -x {5.0 1.0 -1 ------- null}
r -t 1.148576 -s 0 -d 5 -p tcp -e 1040 -c 0 -i 33 -a 0 -x {1.0 5.0 11 ------- null}
+ -t 1.148576 -s 5 -d 0 -p ack -e 40 -c 0 -i 41 -a 0 -x {5.0 1.0 11 ------- null}
- -t 1.148576 -s 5 -d 0 -p ack -e 40 -c 0 -i 41 -a 0 -x {5.0 1.0 11 ------- null}
h -t 1.148576 -s 5 -d 0 -p ack -e 40 -c 0 -i 41 -a 0 -x {5.0 1.0 -1 ------- null}
r -t 1.149408 -s 0 -d 5 -p tcp -e 1040 -c 0 -i 34 -a 0 -x {1.0 5.0 12 ------- null}
+ -t 1.149408 -s 5 -d 0 -p ack -e 40 -c 0 -i 42 -a 0 -x {5.0 1.0 12 ------- null}
- -t 1.149408 -s 5 -d 0 -p ack -e 40 -c 0 -i 42 -a 0 -x {5.0 1.0 12 ------- null}
h -t 1.149408 -s 5 -d 0 -p ack -e 40 -c 0 -i 42 -a 0 -x {5.0 1.0 -1 ------- null}
r -t 1.15024 -s 0 -d 5 -p tcp -e 1040 -c 0 -i 35 -a 0 -x {1.0 5.0 13 ------- null}
+ -t 1.15024 -s 5 -d 0 -p ack -e 40 -c 0 -i 43 -a 0 -x {5.0 1.0 13 ------- null}
- -t 1.15024 -s 5 -d 0 -p ack -e 40 -c 0 -i 43 -a 0 -x {5.0 1.0 13 ------- null}
h -t 1.15024 -s 5 -d 0 -p ack -e 40 -c 0 -i 43 -a 0 -x {5.0 1.0 -1 ------- null}
r -t 1.151072 -s 0 -d 5 -p tcp -e 1040 -c 0 -i 36 -a 0 -x {1.0 5.0 14 ------- null}
+ -t 1.151072 -s 5 -d 0 -p ack -e 40 -c 0 -i 44 -a 0 -x {5.0 1.0 14 ------- null}
- -t 1.151072 -s 5 -d 0 -p ack -e 40 -c 0 -i 44 -a 0 -x {5.0 1.0 14 ------- null}
h -t 1.151072 -s 5 -d 0 -p ack -e 40 -c 0 -i 44 -a 0 -x {5.0 1.0 -1 ------- null}
r -t 1.15528 -s 5 -d 0 -p ack -e 40 -c 0 -i 37 -a 0 -x {5.0 1.0 7 ------- null}
+ -t 1.15528 -s 0 -d 1 -p ack -e 40 -c 0 -i 37 -a 0 -x {5.0 1.0 7 ------- null}
- -t 1.15528 -s 0 -d 1 -p ack -e 40 -c 0 -i 37 -a 0 -x {5.0 1.0 7 ------- null}
h -t 1.15528 -s 0 -d 1 -p ack -e 40 -c 0 -i 37 -a 0 -x {5.0 1.0 -1 ------- null}
r -t 1.156112 -s 5 -d 0 -p ack -e 40 -c 0 -i 38 -a 0 -x {5.0 1.0 8 ------- null}
+ -t 1.156112 -s 0 -d 1 -p ack -e 40 -c 0 -i 38 -a 0 -x {5.0 1.0 8 ------- null}
- -t 1.156112 -s 0 -d 1 -p ack -e 40 -c 0 -i 38 -a 0 -x {5.0 1.0 8 ------- null}
h -t 1.156112 -s 0 -d 1 -p ack -e 40 -c 0 -i 38 -a 0 -x {5.0 1.0 -1 ------- null}
r -t 1.156944 -s 5 -d 0 -p ack -e 40 -c 0 -i 39 -a 0 -x {5.0 1.0 9 ------- null}
+ -t 1.156944 -s 0 -d 1 -p ack -e 40 -c 0 -i 39 -a 0 -x {5.0 1.0 9 ------- null}
- -t 1.156944 -s 0 -d 1 -p ack -e 40 -c 0 -i 39 -a 0 -x {5.0 1.0 9 ------- null}
h -t 1.156944 -s 0 -d 1 -p ack -e 40 -c 0 -i 39 -a 0 -x {5.0 1.0 -1 ------- null}
r -t 1.157776 -s 5 -d 0 -p ack -e 40 -c 0 -i 40 -a 0 -x {5.0 1.0 10 ------- null}
+ -t 1.157776 -s 0 -d 1 -p ack -e 40 -c 0 -i 40 -a 0 -x {5.0 1.0 10 ------- null}
- -t 1.157776 -s 0 -d 1 -p ack -e 40 -c 0 -i 40 -a 0 -x {5.0 1.0 10 ------- null}
h -t 1.157776 -s 0 -d 1 -p ack -e 40 -c 0 -i 40 -a 0 -x {5.0 1.0 -1 ------- null}
r -t 1.158608 -s 5 -d 0 -p ack -e 40 -c 0 -i 41 -a 0 -x {5.0 1.0 11 ------- null}
+ -t 1.158608 -s 0 -d 1 -p ack -e 40 -c 0 -i 41 -a 0 -x {5.0 1.0 11 ------- null}
- -t 1.158608 -s 0 -d 1 -p ack -e 40 -c 0 -i 41 -a 0 -x {5.0 1.0 11 ------- null}
h -t 1.158608 -s 0 -d 1 -p ack -e 40 -c 0 -i 41 -a 0 -x {5.0 1.0 -1 ------- null}
r -t 1.15944 -s 5 -d 0 -p ack -e 40 -c 0 -i 42 -a 0 -x {5.0 1.0 12 ------- null}
+ -t 1.15944 -s 0 -d 1 -p ack -e 40 -c 0 -i 42 -a 0 -x {5.0 1.0 12 ------- null}
- -t 1.15944 -s 0 -d 1 -p ack -e 40 -c 0 -i 42 -a 0 -x {5.0 1.0 12 ------- null}
h -t 1.15944 -s 0 -d 1 -p ack -e 40 -c 0 -i 42 -a 0 -x {5.0 1.0 -1 ------- null}
r -t 1.160272 -s 5 -d 0 -p ack -e 40 -c 0 -i 43 -a 0 -x {5.0 1.0 13 ------- null}
+ -t 1.160272 -s 0 -d 1 -p ack -e 40 -c 0 -i 43 -a 0 -x {5.0 1.0 13 ------- null}
- -t 1.160272 -s 0 -d 1 -p ack -e 40 -c 0 -i 43 -a 0 -x {5.0 1.0 13 ------- null}
h -t 1.160272 -s 0 -d 1 -p ack -e 40 -c 0 -i 43 -a 0 -x {5.0 1.0 -1 ------- null}
r -t 1.161104 -s 5 -d 0 -p ack -e 40 -c 0 -i 44 -a 0 -x {5.0 1.0 14 ------- null}
+ -t 1.161104 -s 0 -d 1 -p ack -e 40 -c 0 -i 44 -a 0 -x {5.0 1.0 14 ------- null}
- -t 1.161104 -s 0 -d 1 -p ack -e 40 -c 0 -i 44 -a 0 -x {5.0 1.0 14 ------- null}
h -t 1.161104 -s 0 -d 1 -p ack -e 40 -c 0 -i 44 -a 0 -x {5.0 1.0 -1 ------- null}
r -t 1.165312 -s 0 -d 1 -p ack -e 40 -c 0 -i 37 -a 0 -x {5.0 1.0 7 ------- null}
+ -t 1.165312 -s 1 -d 0 -p tcp -e 1040 -c 0 -i 45 -a 0 -x {1.0 5.0 15 ------- null}
- -t 1.165312 -s 1 -d 0 -p tcp -e 1040 -c 0 -i 45 -a 0 -x {1.0 5.0 15 ------- null}
h -t 1.165312 -s 1 -d 0 -p tcp -e 1040 -c 0 -i 45 -a 0 -x {1.0 5.0 -1 ------- null}
+ -t 1.165312 -s 1 -d 0 -p tcp -e 1040 -c 0 -i 46 -a 0 -x {1.0 5.0 16 ------- null}
r -t 1.166144 -s 0 -d 1 -p ack -e 40 -c 0 -i 38 -a 0 -x {5.0 1.0 8 ------- null}
+ -t 1.166144 -s 1 -d 0 -p tcp -e 1040 -c 0 -i 47 -a 0 -x {1.0 5.0 17 ------- null}
+ -t 1.166144 -s 1 -d 0 -p tcp -e 1040 -c 0 -i 48 -a 0 -x {1.0 5.0 18 ------- null}
- -t 1.166144 -s 1 -d 0 -p tcp -e 1040 -c 0 -i 46 -a 0 -x {1.0 5.0 16 ------- null}
h -t 1.166144 -s 1 -d 0 -p tcp -e 1040 -c 0 -i 46 -a 0 -x {1.0 5.0 -1 ------- null}
r -t 1.166976 -s 0 -d 1 -p ack -e 40 -c 0 -i 39 -a 0 -x {5.0 1.0 9 ------- null}
+ -t 1.166976 -s 1 -d 0 -p tcp -e 1040 -c 0 -i 49 -a 0 -x {1.0 5.0 19 ------- null}
+ -t 1.166976 -s 1 -d 0 -p tcp -e 1040 -c 0 -i 50 -a 0 -x {1.0 5.0 20 ------- null}
- -t 1.166976 -s 1 -d 0 -p tcp -e 1040 -c 0 -i 47 -a 0 -x {1.0 5.0 17 ------- null}
h -t 1.166976 -s 1 -d 0 -p tcp -e 1040 -c 0 -i 47 -a 0 -x {1.0 5.0 -1 ------- null}
r -t 1.167808 -s 0 -d 1 -p ack -e 40 -c 0 -i 40 -a 0 -x {5.0 1.0 10 ------- null}
+ -t 1.167808 -s 1 -d 0 -p tcp -e 1040 -c 0 -i 51 -a 0 -x {1.0 5.0 21 ------- null}
+ -t 1.167808 -s 1 -d 0 -p tcp -e 1040 -c 0 -i 52 -a 0 -x {1.0 5.0 22 ------- null}
- -t 1.167808 -s 1 -d 0 -p tcp -e 1040 -c 0 -i 48 -a 0 -x {1.0 5.0 18 ------- null}
h -t 1.167808 -s 1 -d 0 -p tcp -e 1040 -c 0 -i 48 -a 0 -x {1.0 5.0 -1 ------- null}
r -t 1.16864 -s 0 -d 1 -p ack -e 40 -c 0 -i 41 -a 0 -x {5.0 1.0 11 ------- null}
+ -t 1.16864 -s 1 -d 0 -p tcp -e 1040 -c 0 -i 53 -a 0 -x {1.0 5.0 23 ------- null}
+ -t 1.16864 -s 1 -d 0 -p tcp -e 1040 -c 0 -i 54 -a 0 -x {1.0 5.0 24 ------- null}
- -t 1.16864 -s 1 -d 0 -p tcp -e 1040 -c 0 -i 49 -a 0 -x {1.0 5.0 19 ------- null}
h -t 1.16864 -s 1 -d 0 -p tcp -e 1040 -c 0 -i 49 -a 0 -x {1.0 5.0 -1 ------- null}
r -t 1.169472 -s 0 -d 1 -p ack -e 40 -c 0 -i 42 -a 0 -x {5.0 1.0 12 ------- null}
+ -t 1.169472 -s 1 -d 0 -p tcp -e 1040 -c 0 -i 55 -a 0 -x {1.0 5.0 25 ------- null}
+ -t 1.169472 -s 1 -d 0 -p tcp -e 1040 -c 0 -i 56 -a 0 -x {1.0 5.0 26 ------- null}
- -t 1.169472 -s 1 -d 0 -p tcp -e 1040 -c 0 -i 50 -a 0 -x {1.0 5.0 20 ------- null}
h -t 1.169472 -s 1 -d 0 -p tcp -e 1040 -c 0 -i 50 -a 0 -x {1.0 5.0 -1 ------- null}
r -t 1.170304 -s 0 -d 1 -p ack -e 40 -c 0 -i 43 -a 0 -x {5.0 1.0 13 ------- null}
+ -t 1.170304 -s 1 -d 0 -p tcp -e 1040 -c 0 -i 57 -a 0 -x {1.0 5.0 27 ------- null}
+ -t 1.170304 -s 1 -d 0 -p tcp -e 1040 -c 0 -i 58 -a 0 -x {1.0 5.0 28 ------- null}
- -t 1.170304 -s 1 -d 0 -p tcp -e 1040 -c 0 -i 51 -a 0 -x {1.0 5.0 21 ------- null}
h -t 1.170304 -s 1 -d 0 -p tcp -e 1040 -c 0 -i 51 -a 0 -x {1.0 5.0 -1 ------- null}
r -t 1.171136 -s 0 -d 1 -p ack -e 40 -c 0 -i 44 -a 0 -x {5.0 1.0 14 ------- null}
+ -t 1.171136 -s 1 -d 0 -p tcp -e 1040 -c 0 -i 59 -a 0 -x {1.0 5.0 29 ------- null}
+ -t 1.171136 -s 1 -d 0 -p tcp -e 1040 -c 0 -i 60 -a 0 -x {1.0 5.0 30 ------- null}
- -t 1.171136 -s 1 -d 0 -p tcp -e 1040 -c 0 -i 52 -a 0 -x {1.0 5.0 22 ------- null}
h -t 1.171136 -s 1 -d 0 -p tcp -e 1040 -c 0 -i 52 -a 0 -x {1.0 5.0 -1 ------- null}
- -t 1.171968 -s 1 -d 0 -p tcp -e 1040 -c 0 -i 53 -a 0 -x {1.0 5.0 23 ------- null}
h -t 1.171968 -s 1 -d 0 -p tcp -e 1040 -c 0 -i 53 -a 0 -x {1.0 5.0 -1 ------- null}
- -t 1.1728 -s 1 -d 0 -p tcp -e 1040 -c 0 -i 54 -a 0 -x {1.0 5.0 24 ------- null}
h -t 1.1728 -s 1 -d 0 -p tcp -e 1040 -c 0 -i 54 -a 0 -x {1.0 5.0 -1 ------- null}
- -t 1.173632 -s 1 -d 0 -p tcp -e 1040 -c 0 -i 55 -a 0 -x {1.0 5.0 25 ------- null}
h -t 1.173632 -s 1 -d 0 -p tcp -e 1040 -c 0 -i 55 -a 0 -x {1.0 5.0 -1 ------- null}
- -t 1.174464 -s 1 -d 0 -p tcp -e 1040 -c 0 -i 56 -a 0 -x {1.0 5.0 26 ------- null}
h -t 1.174464 -s 1 -d 0 -p tcp -e 1040 -c 0 -i 56 -a 0 -x {1.0 5.0 -1 ------- null}
- -t 1.175296 -s 1 -d 0 -p tcp -e 1040 -c 0 -i 57 -a 0 -x {1.0 5.0 27 ------- null}
h -t 1.175296 -s 1 -d 0 -p tcp -e 1040 -c 0 -i 57 -a 0 -x {1.0 5.0 -1 ------- null}
- -t 1.176128 -s 1 -d 0 -p tcp -e 1040 -c 0 -i 58 -a 0 -x {1.0 5.0 28 ------- null}
h -t 1.176128 -s 1 -d 0 -p tcp -e 1040 -c 0 -i 58 -a 0 -x {1.0 5.0 -1 ------- null}
r -t 1.176144 -s 1 -d 0 -p tcp -e 1040 -c 0 -i 45 -a 0 -x {1.0 5.0 15 ------- null}